
    -----------------------------------------------------------------------
          Psi4: An Open-Source Ab Initio Electronic Structure Package
                               Psi4 1.3.2 release

                         Git: Rev {HEAD} ecbda83 


    R. M. Parrish, L. A. Burns, D. G. A. Smith, A. C. Simmonett,
    A. E. DePrince III, E. G. Hohenstein, U. Bozkaya, A. Yu. Sokolov,
    R. Di Remigio, R. M. Richard, J. F. Gonthier, A. M. James,
    H. R. McAlexander, A. Kumar, M. Saitow, X. Wang, B. P. Pritchard,
    P. Verma, H. F. Schaefer III, K. Patkowski, R. A. King, E. F. Valeev,
    F. A. Evangelista, J. M. Turney, T. D. Crawford, and C. D. Sherrill,
    J. Chem. Theory Comput. 13(7) pp 3185--3197 (2017).
    (doi: 10.1021/acs.jctc.7b00174)


                         Additional Contributions by
    P. Kraus, H. Kruse, M. H. Lechner, M. C. Schieber, R. A. Shaw,
    A. Alenaizan, R. Galvelis, Z. L. Glick, S. Lehtola, and J. P. Misiewicz

    -----------------------------------------------------------------------


    Psi4 started on: Friday, 31 May 2019 03:15PM

    Process ID: 17099
    Host:       DN0a2224ae.SUNet
    PSIDATADIR: /anaconda3/share/psi4
    Memory:     500.0 MiB
    Threads:    1
    
  ==> Input File <==

--------------------------------------------------------------------------
"""This is a template for psi4 input format."""
import numpy
import sys

from openfermion.config import *
from openfermion.hamiltonians import MolecularData
from openfermion.ops import general_basis_change

from numpy import array

sys.path.append('/anaconda3/lib/python3.6/site-packages/openfermionpsi4')
from _psi4_conversion_functions import *


# Set memory that job can use in megabytes.
memory 8000 mb

# Initialize molecular data.
_description = '0.4'
if _description == 'None':
    _description = None
molecule = MolecularData([['H', [0, 0, 0]], ['Li', [0, 0, 0.4]]],
                         'sto-3g',
                         1,
                         0,
                         _description,
                          filename='/anaconda3/lib/python3.6/site-packages/openfermion/data/H1-Li1_sto-3g_singlet_0.4')

# Set molecular geometry and symmetry.
molecule mol {
H 0 0 0
Li 0 0 0.4
symmetry c1
}
mol.set_multiplicity(1)
mol.set_molecular_charge(0)

# Set reference and guess.
if molecule.multiplicity == 1:
    set reference rhf
    set guess sad
else:
    set reference rohf
    set guess gwh

# Set global parameters of calculation.
set globals {
    basis sto-3g
    freeze_core false
    fail_on_maxiter False
    df_scf_guess false
    opdm true
    tpdm true
    soscf false
    scf_type pk
    maxiter 1e6
    num_amps_print 1e6
    r_convergence 1e-6
    d_convergence 1e-6
    e_convergence 1e-6
    ints_tolerance EQUALITY_TOLERANCE
    damping_percentage 0
}

# Run self-consistent field (SCF) calculation.
if 1:
    try:
        hf_energy, hf_wavefunction = energy('scf', return_wfn=True)
        if 1:
            print('Hartree-Fock energy for {} ({} electrons) is {}.'.format(
                molecule.name, molecule.n_electrons, hf_energy))
    except:
        if 1:
            print('WARNING: SCF calculation failed.')
        else:
            raise
    finally:
        # Get orbitals and Fock matrix.
        molecule.hf_energy = hf_energy
        molecule.nuclear_repulsion = mol.nuclear_repulsion_energy()
        molecule.canonical_orbitals = numpy.asarray(hf_wavefunction.Ca())
        molecule.overlap_integrals = numpy.asarray(hf_wavefunction.S())
        molecule.n_orbitals = molecule.canonical_orbitals.shape[0]
        molecule.n_qubits = 2 * molecule.n_orbitals
        molecule.orbital_energies = numpy.asarray(hf_wavefunction.epsilon_a())
        molecule.fock_matrix = numpy.asarray(hf_wavefunction.Fa())

        # Get integrals using MintsHelper.
        mints = MintsHelper(hf_wavefunction.basisset())
        molecule.one_body_integrals = general_basis_change(
            numpy.asarray(mints.ao_kinetic()), molecule.canonical_orbitals, (1, 0))
        molecule.one_body_integrals += general_basis_change(
            numpy.asarray(mints.ao_potential()), molecule.canonical_orbitals, (1, 0))
        two_body_integrals = numpy.asarray(mints.ao_eri())
        two_body_integrals.reshape((molecule.n_orbitals, molecule.n_orbitals,
                                    molecule.n_orbitals, molecule.n_orbitals))
        two_body_integrals = numpy.einsum('psqr', two_body_integrals)
        two_body_integrals = general_basis_change(
            two_body_integrals, molecule.canonical_orbitals, (1, 1, 0, 0))
        molecule.two_body_integrals = two_body_integrals
        molecule.save()


# Perform MP2 energy calculation if there are at least two electrons.
if 1:
    try:
        assert molecule.n_electrons > 1
        mp2_energy = energy('mp2')
        if 1:
            print('MP2 energy for {} ({} electrons) is {}.'.format(
                molecule.name, molecule.n_electrons, mp2_energy))
    except:
        if 1:
            print('WARNING: MP2 calculation failed.')
        else:
            raise
    else:
        molecule.mp2_energy = mp2_energy
        molecule.save()


# Perform configuration interaction singles and doubles (CISD) calculation.
if 1:
    set qc_module detci
    try:
        cisd_energy, cisd_wavefunction = energy('cisd', return_wfn=True)
        if 1:
            print('CISD energy for {} ({} electrons) is {}.'.format(
                molecule.name, molecule.n_electrons, cisd_energy))
    except:
        if 1:
            print('WARNING: CISD calculation failed.')
        else:
            raise
    else:
        # For the functions below, "a" and "b" refer to "up and "down" spins.
        molecule.cisd_energy = cisd_energy

        # Get 1-RDM from CISD calculation.
        cisd_one_rdm_a = numpy.array(cisd_wavefunction.get_opdm(
            0, 0, 'A', True)).reshape(molecule.n_orbitals, molecule.n_orbitals)
        cisd_one_rdm_b = numpy.array(cisd_wavefunction.get_opdm(
            0, 0, 'B', True)).reshape(molecule.n_orbitals, molecule.n_orbitals)

        # Get 2-RDM from CISD calculation.
        cisd_two_rdm_aa = numpy.array(cisd_wavefunction.get_tpdm(
            'AA', False)).reshape(molecule.n_orbitals, molecule.n_orbitals,
                                  molecule.n_orbitals, molecule.n_orbitals)
        cisd_two_rdm_ab = numpy.array(cisd_wavefunction.get_tpdm(
            'AB', False)).reshape(molecule.n_orbitals, molecule.n_orbitals,
                                  molecule.n_orbitals, molecule.n_orbitals)
        cisd_two_rdm_bb = numpy.array(cisd_wavefunction.get_tpdm(
            'BB', False)).reshape(molecule.n_orbitals, molecule.n_orbitals,
                                  molecule.n_orbitals, molecule.n_orbitals)

        # Get overall RDMs.
        cisd_one_rdm, cisd_two_rdm = unpack_spatial_rdm(
            cisd_one_rdm_a, cisd_one_rdm_b, cisd_two_rdm_aa,
            cisd_two_rdm_ab, cisd_two_rdm_bb)

        # Store 1-RDM in molecule file, 2-RDM separately in other file.
        molecule.cisd_one_rdm = cisd_one_rdm
        molecule.cisd_two_rdm = cisd_two_rdm
        molecule.save()


# Perform exact diagonalization.
if 1:
    set qc_module detci
    try:
        fci_energy, fci_wavefunction = energy('fci', return_wfn=True)
        if 1:
            print('FCI energy for {} ({} electrons) is {}.'.format(
                molecule.name, molecule.n_electrons, fci_energy))
    except:
        if 1:
            print('WARNING: FCI calculation failed.')
        else:
            raise
    finally:
        # For the functions below, "a" and "b" refer to "up and "down" spins.
        molecule.fci_energy = fci_energy

        # Get 1-RDM from FCI calculation.
        fci_one_rdm_a = numpy.array(fci_wavefunction.get_opdm(
            0, 0, 'A', True)).reshape(molecule.n_orbitals, molecule.n_orbitals)
        fci_one_rdm_b = numpy.array(fci_wavefunction.get_opdm(
            0, 0, 'B', True)).reshape(molecule.n_orbitals, molecule.n_orbitals)

        # Get 2-RDM from FCI calculation.
        fci_two_rdm_aa = numpy.array(fci_wavefunction.get_tpdm(
            'AA', False)).reshape(molecule.n_orbitals, molecule.n_orbitals,
                                  molecule.n_orbitals, molecule.n_orbitals)
        fci_two_rdm_ab = numpy.array(fci_wavefunction.get_tpdm(
            'AB', False)).reshape(molecule.n_orbitals, molecule.n_orbitals,
                                  molecule.n_orbitals, molecule.n_orbitals)
        fci_two_rdm_bb = numpy.array(fci_wavefunction.get_tpdm(
            'BB', False)).reshape(molecule.n_orbitals, molecule.n_orbitals,
                                  molecule.n_orbitals, molecule.n_orbitals)

        # Get overall RDMs.
        fci_one_rdm, fci_two_rdm = unpack_spatial_rdm(
            fci_one_rdm_a, fci_one_rdm_b,
            fci_two_rdm_aa, fci_two_rdm_ab, fci_two_rdm_bb)

        # Store 1-RDM in molecule file, 2-RDM separately in other file.
        molecule.fci_one_rdm = fci_one_rdm
        molecule.fci_two_rdm = fci_two_rdm
        molecule.save()


# Perform coupled cluster singles and doubles (CCSD) calculation.
if 1:
    set qc_module ccenergy
    try:
        ccsd_energy = energy('ccsd')
        if 1:
            print('CCSD energy for {} ({} electrons) is {}.'.format(
                molecule.name, molecule.n_electrons, ccsd_energy))
    except:
        if 1:
            print('WARNING: CCSD calculation failed.')
        else:
            raise
    else:
        molecule.ccsd_energy = ccsd_energy

        # Merge CC amplitudes into molecule by parsing
        psi_filename = outfile_name()
        single_cc_amplitudes, double_cc_amplitudes = (
            parse_psi4_ccsd_amplitudes(
                2 * molecule.n_orbitals,
                molecule.get_n_alpha_electrons(),
                molecule.get_n_beta_electrons(),
                psi_filename))

        molecule.ccsd_single_amps = single_cc_amplitudes
        molecule.ccsd_double_amps = double_cc_amplitudes
        molecule.save()
--------------------------------------------------------------------------

  Memory set to   7.451 GiB by Python driver.

*** tstart() called on DN0a2224ae.SUNet
*** at Fri May 31 15:15:44 2019

   => Loading Basis Set <=

    Name: STO-3G
    Role: ORBITAL
    Keyword: BASIS
    atoms 1 entry H          line    19 file /anaconda3/share/psi4/basis/sto-3g.gbs 
    atoms 2 entry LI         line    31 file /anaconda3/share/psi4/basis/sto-3g.gbs 


         ---------------------------------------------------------
                                   SCF
               by Justin Turney, Rob Parrish, Andy Simmonett
                          and Daniel G. A. Smith
                              RHF Reference
                        1 Threads,   7629 MiB Core
         ---------------------------------------------------------

  ==> Geometry <==

    Molecular point group: c1
    Full point group: C_inf_v

    Geometry (in Angstrom), charge = 0, multiplicity = 1:

       Center              X                  Y                   Z               Mass       
    ------------   -----------------  -----------------  -----------------  -----------------
         H            0.000000000000     0.000000000000    -0.349758395951     1.007825032230
         LI           0.000000000000     0.000000000000     0.050241604049     7.016003436600

  Running in c1 symmetry.

  Rotational constants: A = ************  B =    119.55926  C =    119.55926 [cm^-1]
  Rotational constants: A = ************  B = 3584296.41921  C = 3584296.41921 [MHz]
  Nuclear repulsion =    3.968829080025000

  Charge       = 0
  Multiplicity = 1
  Electrons    = 4
  Nalpha       = 2
  Nbeta        = 2

  ==> Algorithm <==

  SCF Algorithm Type is PK.
  DIIS enabled.
  MOM disabled.
  Fractional occupation disabled.
  Guess Type is SAD.
  Energy threshold   = 1.00e-06
  Density threshold  = 1.00e-06
  Integral threshold = 0.00e+00

  ==> Primary Basis <==

  Basis Set: STO-3G
    Blend: STO-3G
    Number of shells: 4
    Number of basis function: 6
    Number of Cartesian functions: 6
    Spherical Harmonics?: true
    Max angular momentum: 1

  ==> Pre-Iterations <==

   -------------------------------------------------------
    Irrep   Nso     Nmo     Nalpha   Nbeta   Ndocc  Nsocc
   -------------------------------------------------------
     A          6       6       0       0       0       0
   -------------------------------------------------------
    Total       6       6       2       2       2       0
   -------------------------------------------------------

  ==> Integral Setup <==

  Using in-core PK algorithm.
   Calculation information:
      Number of atoms:                   2
      Number of AO shells:               4
      Number of primitives:             12
      Number of atomic orbitals:         6
      Number of basis functions:         6

      Integral cutoff                 1.00e-12
      Number of threads:                 1

  Performing in-core PK
  Using 462 doubles for integral storage.
  We computed 55 shell quartets total.
  Whereas there are 55 unique shell quartets.

  ==> DiskJK: Disk-Based J/K Matrices <==

    J tasked:                  Yes
    K tasked:                  Yes
    wK tasked:                  No
    Memory [MiB]:             5722
    Schwarz Cutoff:          1E-12

    OpenMP threads:              1

  Minimum eigenvalue in the overlap matrix is 1.7266820527E-01.
  Using Symmetric Orthogonalization.

  SCF Guess: Superposition of Atomic Densities via on-the-fly atomic UHF.

  ==> Iterations <==

                        Total Energy        Delta E     RMS |[F,P]|

   @RHF iter SAD:    -7.50446476094113   -7.50446e+00   0.00000e+00 
   @RHF iter   1:    -6.58954610915455    9.14919e-01   3.47075e-02 DIIS
   @RHF iter   2:    -6.61004062087600   -2.04945e-02   2.95313e-03 DIIS
   @RHF iter   3:    -6.61025826360901   -2.17643e-04   1.61093e-04 DIIS
   @RHF iter   4:    -6.61025894504822   -6.81439e-07   9.69832e-07 DIIS
  Energy and wave function converged.


  ==> Post-Iterations <==

    Orbital Energies [Eh]
    ---------------------

    Doubly Occupied:                                                      

       1A     -3.133835     2A     -0.273271  

    Virtual:                                                              

       3A      0.008644     4A      0.068762     5A      0.068762  
       6A      0.785614  

    Final Occupation by Irrep:
              A 
    DOCC [     2 ]

  @RHF Final Energy:    -6.61025894504822

   => Energetics <=

    Nuclear Repulsion Energy =              3.9688290800249999
    One-Electron Energy =                 -14.3439590199267695
    Two-Electron Energy =                   3.7648709948535450
    Total Energy =                         -6.6102589450482245

Computation Completed


Properties will be evaluated at   0.000000,   0.000000,   0.000000 [a0]

Properties computed using the SCF density matrix

  Nuclear Dipole Moment: [e a0]
     X:     0.0000      Y:     0.0000      Z:    -0.3761

  Electronic Dipole Moment: [e a0]
     X:     0.0000      Y:     0.0000      Z:     2.3763

  Dipole Moment: [e a0]
     X:     0.0000      Y:     0.0000      Z:     2.0001     Total:     2.0001

  Dipole Moment: [D]
     X:     0.0000      Y:     0.0000      Z:     5.0839     Total:     5.0839


*** tstop() called on DN0a2224ae.SUNet at Fri May 31 15:15:44 2019
Module time:
	user time   =       0.17 seconds =       0.00 minutes
	system time =       0.02 seconds =       0.00 minutes
	total time  =          0 seconds =       0.00 minutes
Total time:
	user time   =       0.17 seconds =       0.00 minutes
	system time =       0.02 seconds =       0.00 minutes
	total time  =          0 seconds =       0.00 minutes

*** tstart() called on DN0a2224ae.SUNet
*** at Fri May 31 15:15:44 2019

   => Loading Basis Set <=

    Name: STO-3G
    Role: ORBITAL
    Keyword: BASIS
    atoms 1 entry H          line    19 file /anaconda3/share/psi4/basis/sto-3g.gbs 
    atoms 2 entry LI         line    31 file /anaconda3/share/psi4/basis/sto-3g.gbs 


         ---------------------------------------------------------
                                   SCF
               by Justin Turney, Rob Parrish, Andy Simmonett
                          and Daniel G. A. Smith
                              RHF Reference
                        1 Threads,   7629 MiB Core
         ---------------------------------------------------------

  ==> Geometry <==

    Molecular point group: c1
    Full point group: C_inf_v

    Geometry (in Angstrom), charge = 0, multiplicity = 1:

       Center              X                  Y                   Z               Mass       
    ------------   -----------------  -----------------  -----------------  -----------------
         H            0.000000000000     0.000000000000    -0.349758395951     1.007825032230
         LI           0.000000000000     0.000000000000     0.050241604049     7.016003436600

  Running in c1 symmetry.

  Rotational constants: A = ************  B =    119.55926  C =    119.55926 [cm^-1]
  Rotational constants: A = ************  B = 3584296.41921  C = 3584296.41921 [MHz]
  Nuclear repulsion =    3.968829080025000

  Charge       = 0
  Multiplicity = 1
  Electrons    = 4
  Nalpha       = 2
  Nbeta        = 2

  ==> Algorithm <==

  SCF Algorithm Type is PK.
  DIIS enabled.
  MOM disabled.
  Fractional occupation disabled.
  Guess Type is SAD.
  Energy threshold   = 1.00e-06
  Density threshold  = 1.00e-06
  Integral threshold = 0.00e+00

  ==> Primary Basis <==

  Basis Set: STO-3G
    Blend: STO-3G
    Number of shells: 4
    Number of basis function: 6
    Number of Cartesian functions: 6
    Spherical Harmonics?: true
    Max angular momentum: 1

  ==> Pre-Iterations <==

   -------------------------------------------------------
    Irrep   Nso     Nmo     Nalpha   Nbeta   Ndocc  Nsocc
   -------------------------------------------------------
     A          6       6       0       0       0       0
   -------------------------------------------------------
    Total       6       6       2       2       2       0
   -------------------------------------------------------

  ==> Integral Setup <==

  Using in-core PK algorithm.
   Calculation information:
      Number of atoms:                   2
      Number of AO shells:               4
      Number of primitives:             12
      Number of atomic orbitals:         6
      Number of basis functions:         6

      Integral cutoff                 1.00e-12
      Number of threads:                 1

  Performing in-core PK
  Using 462 doubles for integral storage.
  We computed 55 shell quartets total.
  Whereas there are 55 unique shell quartets.

  ==> DiskJK: Disk-Based J/K Matrices <==

    J tasked:                  Yes
    K tasked:                  Yes
    wK tasked:                  No
    Memory [MiB]:             5722
    Schwarz Cutoff:          1E-12

    OpenMP threads:              1

  Minimum eigenvalue in the overlap matrix is 1.7266820527E-01.
  Using Symmetric Orthogonalization.

  SCF Guess: Superposition of Atomic Densities via on-the-fly atomic UHF.

  ==> Iterations <==

                        Total Energy        Delta E     RMS |[F,P]|

   @RHF iter SAD:    -7.50446476094113   -7.50446e+00   0.00000e+00 
   @RHF iter   1:    -6.58954610915455    9.14919e-01   3.47075e-02 DIIS
   @RHF iter   2:    -6.61004062087600   -2.04945e-02   2.95313e-03 DIIS
   @RHF iter   3:    -6.61025826360901   -2.17643e-04   1.61093e-04 DIIS
   @RHF iter   4:    -6.61025894504822   -6.81439e-07   9.69832e-07 DIIS
  Energy and wave function converged.


  ==> Post-Iterations <==

    Orbital Energies [Eh]
    ---------------------

    Doubly Occupied:                                                      

       1A     -3.133835     2A     -0.273271  

    Virtual:                                                              

       3A      0.008644     4A      0.068762     5A      0.068762  
       6A      0.785614  

    Final Occupation by Irrep:
              A 
    DOCC [     2 ]

  @RHF Final Energy:    -6.61025894504822

   => Energetics <=

    Nuclear Repulsion Energy =              3.9688290800249999
    One-Electron Energy =                 -14.3439590199267695
    Two-Electron Energy =                   3.7648709948535450
    Total Energy =                         -6.6102589450482245

Computation Completed


Properties will be evaluated at   0.000000,   0.000000,   0.000000 [a0]

Properties computed using the SCF density matrix

  Nuclear Dipole Moment: [e a0]
     X:     0.0000      Y:     0.0000      Z:    -0.3761

  Electronic Dipole Moment: [e a0]
     X:     0.0000      Y:     0.0000      Z:     2.3763

  Dipole Moment: [e a0]
     X:     0.0000      Y:     0.0000      Z:     2.0001     Total:     2.0001

  Dipole Moment: [D]
     X:     0.0000      Y:     0.0000      Z:     5.0839     Total:     5.0839


*** tstop() called on DN0a2224ae.SUNet at Fri May 31 15:15:45 2019
Module time:
	user time   =       0.17 seconds =       0.00 minutes
	system time =       0.02 seconds =       0.00 minutes
	total time  =          1 seconds =       0.02 minutes
Total time:
	user time   =       0.38 seconds =       0.01 minutes
	system time =       0.04 seconds =       0.00 minutes
	total time  =          1 seconds =       0.02 minutes

*** tstart() called on DN0a2224ae.SUNet
*** at Fri May 31 15:15:45 2019


  //>>>>>>>>>>>>>>>>>>>>>>>>>>>>>>>>>>>//
  //               DFMP2               //
  //<<<<<<<<<<<<<<<<<<<<<<<<<<<<<<<<<<<//

   => Loading Basis Set <=

    Name: (STO-3G AUX)
    Role: RIFIT
    Keyword: DF_BASIS_MP2
    atoms 1 entry H          line    24 file /anaconda3/share/psi4/basis/def2-qzvpp-ri.gbs 
    atoms 2 entry LI         line    90 file /anaconda3/share/psi4/basis/def2-qzvpp-ri.gbs 

	 --------------------------------------------------------
	                          DF-MP2                         
	      2nd-Order Density-Fitted Moller-Plesset Theory     
	              RMP2 Wavefunction,   1 Threads             
	                                                         
	        Rob Parrish, Justin Turney, Andy Simmonett,      
	           Ed Hohenstein, and C. David Sherrill          
	 --------------------------------------------------------

   => Auxiliary Basis Set <=

  Basis Set: (STO-3G AUX)
    Blend: DEF2-QZVPP-RI
    Number of shells: 43
    Number of basis function: 157
    Number of Cartesian functions: 201
    Spherical Harmonics?: true
    Max angular momentum: 4

	 --------------------------------------------------------
	                 NBF =     6, NAUX =   157
	 --------------------------------------------------------
	   CLASS    FOCC     OCC    AOCC    AVIR     VIR    FVIR
	   PAIRS       0       2       2       4       4       0
	 --------------------------------------------------------

	-----------------------------------------------------------
	 ==================> DF-MP2 Energies <==================== 
	-----------------------------------------------------------
	 Reference Energy          =      -6.6102589450482245 [Eh]
	 Singles Energy            =      -0.0000000000000000 [Eh]
	 Same-Spin Energy          =      -0.0000005342425916 [Eh]
	 Opposite-Spin Energy      =      -0.0167755684428920 [Eh]
	 Correlation Energy        =      -0.0167761026854836 [Eh]
	 Total Energy              =      -6.6270350477337079 [Eh]
	-----------------------------------------------------------
	 ================> DF-SCS-MP2 Energies <================== 
	-----------------------------------------------------------
	 SCS Same-Spin Scale       =       0.3333333333333333 [-]
	 SCS Opposite-Spin Scale   =       1.2000000000000000 [-]
	 SCS Same-Spin Energy      =      -0.0000001780808639 [Eh]
	 SCS Opposite-Spin Energy  =      -0.0201306821314704 [Eh]
	 SCS Correlation Energy    =      -0.0201308602123343 [Eh]
	 SCS Total Energy          =      -6.6303898052605588 [Eh]
	-----------------------------------------------------------


*** tstop() called on DN0a2224ae.SUNet at Fri May 31 15:15:45 2019
Module time:
	user time   =       0.07 seconds =       0.00 minutes
	system time =       0.00 seconds =       0.00 minutes
	total time  =          0 seconds =       0.00 minutes
Total time:
	user time   =       0.46 seconds =       0.01 minutes
	system time =       0.04 seconds =       0.00 minutes
	total time  =          1 seconds =       0.02 minutes

*** tstart() called on DN0a2224ae.SUNet
*** at Fri May 31 15:15:45 2019

   => Loading Basis Set <=

    Name: STO-3G
    Role: ORBITAL
    Keyword: BASIS
    atoms 1 entry H          line    19 file /anaconda3/share/psi4/basis/sto-3g.gbs 
    atoms 2 entry LI         line    31 file /anaconda3/share/psi4/basis/sto-3g.gbs 


         ---------------------------------------------------------
                                   SCF
               by Justin Turney, Rob Parrish, Andy Simmonett
                          and Daniel G. A. Smith
                              RHF Reference
                        1 Threads,   7629 MiB Core
         ---------------------------------------------------------

  ==> Geometry <==

    Molecular point group: c1
    Full point group: C_inf_v

    Geometry (in Angstrom), charge = 0, multiplicity = 1:

       Center              X                  Y                   Z               Mass       
    ------------   -----------------  -----------------  -----------------  -----------------
         H            0.000000000000     0.000000000000    -0.349758395951     1.007825032230
         LI           0.000000000000     0.000000000000     0.050241604049     7.016003436600

  Running in c1 symmetry.

  Rotational constants: A = ************  B =    119.55926  C =    119.55926 [cm^-1]
  Rotational constants: A = ************  B = 3584296.41921  C = 3584296.41921 [MHz]
  Nuclear repulsion =    3.968829080025000

  Charge       = 0
  Multiplicity = 1
  Electrons    = 4
  Nalpha       = 2
  Nbeta        = 2

  ==> Algorithm <==

  SCF Algorithm Type is PK.
  DIIS enabled.
  MOM disabled.
  Fractional occupation disabled.
  Guess Type is SAD.
  Energy threshold   = 1.00e-06
  Density threshold  = 1.00e-06
  Integral threshold = 0.00e+00

  ==> Primary Basis <==

  Basis Set: STO-3G
    Blend: STO-3G
    Number of shells: 4
    Number of basis function: 6
    Number of Cartesian functions: 6
    Spherical Harmonics?: true
    Max angular momentum: 1

  ==> Pre-Iterations <==

   -------------------------------------------------------
    Irrep   Nso     Nmo     Nalpha   Nbeta   Ndocc  Nsocc
   -------------------------------------------------------
     A          6       6       0       0       0       0
   -------------------------------------------------------
    Total       6       6       2       2       2       0
   -------------------------------------------------------

  ==> Integral Setup <==

  Using in-core PK algorithm.
   Calculation information:
      Number of atoms:                   2
      Number of AO shells:               4
      Number of primitives:             12
      Number of atomic orbitals:         6
      Number of basis functions:         6

      Integral cutoff                 1.00e-12
      Number of threads:                 1

  Performing in-core PK
  Using 462 doubles for integral storage.
  We computed 55 shell quartets total.
  Whereas there are 55 unique shell quartets.

  ==> DiskJK: Disk-Based J/K Matrices <==

    J tasked:                  Yes
    K tasked:                  Yes
    wK tasked:                  No
    Memory [MiB]:             5722
    Schwarz Cutoff:          1E-12

    OpenMP threads:              1

  Minimum eigenvalue in the overlap matrix is 1.7266820527E-01.
  Using Symmetric Orthogonalization.

  SCF Guess: Superposition of Atomic Densities via on-the-fly atomic UHF.

  ==> Iterations <==

                        Total Energy        Delta E     RMS |[F,P]|

   @RHF iter SAD:    -7.50446476094113   -7.50446e+00   0.00000e+00 
   @RHF iter   1:    -6.58954610915455    9.14919e-01   3.47075e-02 DIIS
   @RHF iter   2:    -6.61004062087600   -2.04945e-02   2.95313e-03 DIIS
   @RHF iter   3:    -6.61025826360901   -2.17643e-04   1.61093e-04 DIIS
   @RHF iter   4:    -6.61025894504822   -6.81439e-07   9.69832e-07 DIIS
  Energy and wave function converged.


  ==> Post-Iterations <==

    Orbital Energies [Eh]
    ---------------------

    Doubly Occupied:                                                      

       1A     -3.133835     2A     -0.273271  

    Virtual:                                                              

       3A      0.008644     4A      0.068762     5A      0.068762  
       6A      0.785614  

    Final Occupation by Irrep:
              A 
    DOCC [     2 ]

  @RHF Final Energy:    -6.61025894504822

   => Energetics <=

    Nuclear Repulsion Energy =              3.9688290800249999
    One-Electron Energy =                 -14.3439590199267695
    Two-Electron Energy =                   3.7648709948535450
    Total Energy =                         -6.6102589450482245

Computation Completed


Properties will be evaluated at   0.000000,   0.000000,   0.000000 [a0]

Properties computed using the SCF density matrix

  Nuclear Dipole Moment: [e a0]
     X:     0.0000      Y:     0.0000      Z:    -0.3761

  Electronic Dipole Moment: [e a0]
     X:     0.0000      Y:     0.0000      Z:     2.3763

  Dipole Moment: [e a0]
     X:     0.0000      Y:     0.0000      Z:     2.0001     Total:     2.0001

  Dipole Moment: [D]
     X:     0.0000      Y:     0.0000      Z:     5.0839     Total:     5.0839


*** tstop() called on DN0a2224ae.SUNet at Fri May 31 15:15:45 2019
Module time:
	user time   =       0.16 seconds =       0.00 minutes
	system time =       0.01 seconds =       0.00 minutes
	total time  =          0 seconds =       0.00 minutes
Total time:
	user time   =       0.64 seconds =       0.01 minutes
	system time =       0.05 seconds =       0.00 minutes
	total time  =          1 seconds =       0.02 minutes
 MINTS: Wrapper to libmints.
   by Justin Turney

   Calculation information:
      Number of threads:                 1
      Number of atoms:                   2
      Number of AO shells:               4
      Number of SO shells:               4
      Number of primitives:             12
      Number of atomic orbitals:         6
      Number of basis functions:         6

      Number of irreps:                  1
      Integral cutoff                 0.00e+00
      Number of functions per irrep: [   6 ]

 OEINTS: Overlap, kinetic, potential, dipole, and quadrupole integrals
         stored in file 35.

      Computing two-electron integrals...done
      Computed 83 non-zero two-electron integrals.
        Stored in file 33.


         ---------------------------------------------------------
                          Configuration Interaction
                            (a 'D E T C I' module)

                 C. David Sherrill, Daniel G. A. Smith, and
                              Matt L. Leininger
         ---------------------------------------------------------


   ==> Parameters <==

    EX LEVEL       =        2      H0 BLOCKSIZE  =     1000
    VAL EX LEVEL   =        0      H0 GUESS SIZE =     1000
    H0COUPLINGSIZE =        0      H0 COUPLING   =       NO
    MAXITER        =       24      NUM PRINT     =       20
    NUM ROOTS      =        1      ICORE         =        1
    PRINT LVL      =        1      FCI           =       NO
    R CONV         = 1.00e-06      MIXED         =      YES
    E CONV         = 1.00e-06      MIXED4        =      YES
    R4S            =       NO      REPL OTF      =       NO
    DIAG METHOD    =      SEM      FOLLOW ROOT   =        0
    PRECONDITIONER = DAVIDSON      UPDATE        = DAVIDSON
    S              =   0.0000      Ms0           =      YES
    GUESS VECTOR   =  H0BLOCK      OPENTYPE      =     NONE
    COLLAPSE SIZE  =        1      HD AVG        = EVANGELISTI
    MAX NUM VECS   =       25      REF SYM       =     AUTO
    IOPEN        =       NO

    EX ALLOW       =  1  1 
    STATE AVERAGE  =  0(1.00) 

   ==> CI Orbital and Space information <==

    RAS1 LVL      =        1      A RAS3 MAX    =        2
    RAS1 MIN      =        2      B RAS3 MAX    =        2
    A RAS1 LVL    =        1      RAS4 LVL      =        6
    A RAS1 MIN    =        0      A RAS4 MAX    =        0
    A RAS1 MAX    =        2      B RAS4 MAX    =        0
    B RAS1 LVL    =        1      RAS4 MAX      =        0
    B RAS1 MIN    =        0      A RAS34 MAX   =        2
    B RAS1 MAX    =        2      B RAS34 MAX   =        2
    RAS3 LVL      =        2      RAS34 MAX     =        2
    RAS3 MAX      =        2
   ------------------------------------
               Space    Total     A
   ------------------------------------
                 Nso        6     6
                 Nmo        6     6
               Ndocc        2     2
               Nsocc        0     0
   ------------------------------------
              CI Spaces
   ------------------------------------
        Dropped DOCC        0     0
                RAS1        2     2
                RAS2        0     0
                RAS3        4     4
                RAS4        0     0
      Active (total)        6     6
        Dropped UOCC        0     0
   ------------------------------------

   ==> Setting up CI strings <==

    There are 15 alpha and 15 beta strings
    The CI space requires 93 (9.30E+01) determinants and 6 blocks

   ==> Transforming CI integrals <==

	Presorting SO-basis two-electron integrals.
	Sorting File: SO Ints (nn|nn) nbuckets = 1
	Transforming the one-electron integrals and constructing Fock matrices
	Starting first half-transformation.
	Sorting half-transformed integrals.
	First half integral transformation complete.
	Starting second half-transformation.
	Two-electron integral transformation complete.

   ==> Starting CI iterations <==

    H0 Block Eigenvalue =  -6.63978629

    Simultaneous Expansion Method (Block Davidson Method)
    Using 1 initial trial vectors

     Iter   Root       Total Energy       Delta E      C RMS

   @CI  0:     0     -6.639786286425   -1.0609E+01   1.4606E-14  
    Warning: Norm of correction (root 0) is < 1.0E-13
   @CI  1:     0     -6.639786286425   1.7764E-15   6.6913E-14 c

   ==> Energetics <==

    SCF energy =           -6.610258945048225
    Total CI energy =      -6.639786286424812

   ==> CISD root 0 information <==

    CISD Root 0 energy =    -6.639786286424812

   The 20 most important determinants:

    *   1   -0.949006  (    0,    0)  1AX 2AX 
    *   2    0.154879  (    5,    5)  1AX 5AX 
    *   3    0.154879  (    3,    3)  1AX 4AX 
    *   4    0.133379  (    1,    1)  1AX 3AX 
    *   5    0.121554  (    0,    1)  1AX 2AA 3AB 
    *   6    0.121554  (    1,    0)  1AX 2AB 3AA 
    *   7    0.039380  (    7,    7)  1AX 6AX 
    *   8    0.030482  (    1,    7)  1AX 3AA 6AB 
    *   9    0.030482  (    7,    1)  1AX 3AB 6AA 
    *  10    0.018744  (    8,    8)  2AX 6AX 
    *  11   -0.006927  (    0,    7)  1AX 2AA 6AB 
    *  12   -0.006927  (    7,    0)  1AX 2AB 6AA 
    *  13    0.006288  (    7,    8)  1AA 2AB 6AX 
    *  14    0.006288  (    8,    7)  1AB 2AA 6AX 
    *  15    0.004012  (    2,    8)  2AX 3AA 6AB 
    *  16    0.004012  (    8,    2)  2AX 3AB 6AA 
    *  17   -0.003426  (    1,    2)  1AA 2AB 3AX 
    *  18   -0.003426  (    2,    1)  1AB 2AA 3AX 
    *  19   -0.002956  (    1,    8)  1AA 2AB 3AA 6AB 
    *  20   -0.002956  (    8,    1)  1AB 2AA 3AB 6AA 

		 "A good bug is a dead bug" 

			 - Starship Troopers

		 "I didn't write FORTRAN.  That's the problem."

			 - Edward Valeev

*** tstart() called on DN0a2224ae.SUNet
*** at Fri May 31 15:15:45 2019

   => Loading Basis Set <=

    Name: STO-3G
    Role: ORBITAL
    Keyword: BASIS
    atoms 1 entry H          line    19 file /anaconda3/share/psi4/basis/sto-3g.gbs 
    atoms 2 entry LI         line    31 file /anaconda3/share/psi4/basis/sto-3g.gbs 


         ---------------------------------------------------------
                                   SCF
               by Justin Turney, Rob Parrish, Andy Simmonett
                          and Daniel G. A. Smith
                              RHF Reference
                        1 Threads,   7629 MiB Core
         ---------------------------------------------------------

  ==> Geometry <==

    Molecular point group: c1
    Full point group: C_inf_v

    Geometry (in Angstrom), charge = 0, multiplicity = 1:

       Center              X                  Y                   Z               Mass       
    ------------   -----------------  -----------------  -----------------  -----------------
         H            0.000000000000     0.000000000000    -0.349758395951     1.007825032230
         LI           0.000000000000     0.000000000000     0.050241604049     7.016003436600

  Running in c1 symmetry.

  Rotational constants: A = ************  B =    119.55926  C =    119.55926 [cm^-1]
  Rotational constants: A = ************  B = 3584296.41921  C = 3584296.41921 [MHz]
  Nuclear repulsion =    3.968829080025000

  Charge       = 0
  Multiplicity = 1
  Electrons    = 4
  Nalpha       = 2
  Nbeta        = 2

  ==> Algorithm <==

  SCF Algorithm Type is PK.
  DIIS enabled.
  MOM disabled.
  Fractional occupation disabled.
  Guess Type is SAD.
  Energy threshold   = 1.00e-06
  Density threshold  = 1.00e-06
  Integral threshold = 0.00e+00

  ==> Primary Basis <==

  Basis Set: STO-3G
    Blend: STO-3G
    Number of shells: 4
    Number of basis function: 6
    Number of Cartesian functions: 6
    Spherical Harmonics?: true
    Max angular momentum: 1

  ==> Pre-Iterations <==

   -------------------------------------------------------
    Irrep   Nso     Nmo     Nalpha   Nbeta   Ndocc  Nsocc
   -------------------------------------------------------
     A          6       6       0       0       0       0
   -------------------------------------------------------
    Total       6       6       2       2       2       0
   -------------------------------------------------------

  ==> Integral Setup <==

  Using in-core PK algorithm.
   Calculation information:
      Number of atoms:                   2
      Number of AO shells:               4
      Number of primitives:             12
      Number of atomic orbitals:         6
      Number of basis functions:         6

      Integral cutoff                 1.00e-12
      Number of threads:                 1

  Performing in-core PK
  Using 462 doubles for integral storage.
  We computed 55 shell quartets total.
  Whereas there are 55 unique shell quartets.

  ==> DiskJK: Disk-Based J/K Matrices <==

    J tasked:                  Yes
    K tasked:                  Yes
    wK tasked:                  No
    Memory [MiB]:             5722
    Schwarz Cutoff:          1E-12

    OpenMP threads:              1

  Minimum eigenvalue in the overlap matrix is 1.7266820527E-01.
  Using Symmetric Orthogonalization.

  SCF Guess: Superposition of Atomic Densities via on-the-fly atomic UHF.

  ==> Iterations <==

                        Total Energy        Delta E     RMS |[F,P]|

   @RHF iter SAD:    -7.50446476094113   -7.50446e+00   0.00000e+00 
   @RHF iter   1:    -6.58954610915455    9.14919e-01   3.47075e-02 DIIS
   @RHF iter   2:    -6.61004062087600   -2.04945e-02   2.95313e-03 DIIS
   @RHF iter   3:    -6.61025826360901   -2.17643e-04   1.61093e-04 DIIS
   @RHF iter   4:    -6.61025894504822   -6.81439e-07   9.69832e-07 DIIS
  Energy and wave function converged.


  ==> Post-Iterations <==

    Orbital Energies [Eh]
    ---------------------

    Doubly Occupied:                                                      

       1A     -3.133835     2A     -0.273271  

    Virtual:                                                              

       3A      0.008644     4A      0.068762     5A      0.068762  
       6A      0.785614  

    Final Occupation by Irrep:
              A 
    DOCC [     2 ]

  @RHF Final Energy:    -6.61025894504822

   => Energetics <=

    Nuclear Repulsion Energy =              3.9688290800249999
    One-Electron Energy =                 -14.3439590199267695
    Two-Electron Energy =                   3.7648709948535450
    Total Energy =                         -6.6102589450482245

Computation Completed


Properties will be evaluated at   0.000000,   0.000000,   0.000000 [a0]

Properties computed using the SCF density matrix

  Nuclear Dipole Moment: [e a0]
     X:     0.0000      Y:     0.0000      Z:    -0.3761

  Electronic Dipole Moment: [e a0]
     X:     0.0000      Y:     0.0000      Z:     2.3763

  Dipole Moment: [e a0]
     X:     0.0000      Y:     0.0000      Z:     2.0001     Total:     2.0001

  Dipole Moment: [D]
     X:     0.0000      Y:     0.0000      Z:     5.0839     Total:     5.0839


*** tstop() called on DN0a2224ae.SUNet at Fri May 31 15:15:45 2019
Module time:
	user time   =       0.16 seconds =       0.00 minutes
	system time =       0.02 seconds =       0.00 minutes
	total time  =          0 seconds =       0.00 minutes
Total time:
	user time   =       0.84 seconds =       0.01 minutes
	system time =       0.09 seconds =       0.00 minutes
	total time  =          1 seconds =       0.02 minutes
 MINTS: Wrapper to libmints.
   by Justin Turney

   Calculation information:
      Number of threads:                 1
      Number of atoms:                   2
      Number of AO shells:               4
      Number of SO shells:               4
      Number of primitives:             12
      Number of atomic orbitals:         6
      Number of basis functions:         6

      Number of irreps:                  1
      Integral cutoff                 0.00e+00
      Number of functions per irrep: [   6 ]

 OEINTS: Overlap, kinetic, potential, dipole, and quadrupole integrals
         stored in file 35.

      Computing two-electron integrals...done
      Computed 83 non-zero two-electron integrals.
        Stored in file 33.


         ---------------------------------------------------------
                          Configuration Interaction
                            (a 'D E T C I' module)

                 C. David Sherrill, Daniel G. A. Smith, and
                              Matt L. Leininger
         ---------------------------------------------------------


   ==> Parameters <==

    EX LEVEL       =        4      H0 BLOCKSIZE  =     1000
    VAL EX LEVEL   =        0      H0 GUESS SIZE =     1000
    H0COUPLINGSIZE =        0      H0 COUPLING   =       NO
    MAXITER        =       24      NUM PRINT     =       20
    NUM ROOTS      =        1      ICORE         =        1
    PRINT LVL      =        1      FCI           =      YES
    R CONV         = 1.00e-06      MIXED         =      YES
    E CONV         = 1.00e-06      MIXED4        =      YES
    R4S            =       NO      REPL OTF      =       NO
    DIAG METHOD    =      SEM      FOLLOW ROOT   =        0
    PRECONDITIONER = DAVIDSON      UPDATE        = DAVIDSON
    S              =   0.0000      Ms0           =      YES
    GUESS VECTOR   =  H0BLOCK      OPENTYPE      =     NONE
    COLLAPSE SIZE  =        1      HD AVG        = EVANGELISTI
    MAX NUM VECS   =       25      REF SYM       =     AUTO
    IOPEN        =       NO

    EX ALLOW       =  1  1  1  1 
    STATE AVERAGE  =  0(1.00) 

   ==> CI Orbital and Space information <==

   ------------------------------------
               Space    Total     A
   ------------------------------------
                 Nso        6     6
                 Nmo        6     6
               Ndocc        2     2
               Nsocc        0     0
   ------------------------------------
              CI Spaces
   ------------------------------------
        Dropped DOCC        0     0
              Active        6     6
        Dropped UOCC        0     0
   ------------------------------------

   ==> Setting up CI strings <==

    There are 15 alpha and 15 beta strings
    The CI space requires 225 (2.25E+02) determinants and 1 blocks

   ==> Transforming CI integrals <==

	Presorting SO-basis two-electron integrals.
	Sorting File: SO Ints (nn|nn) nbuckets = 1
	Transforming the one-electron integrals and constructing Fock matrices
	Starting first half-transformation.
	Sorting half-transformed integrals.
	First half integral transformation complete.
	Starting second half-transformation.
	Two-electron integral transformation complete.

   ==> Starting CI iterations <==

    H0 Block Eigenvalue =  -6.64027784

    Simultaneous Expansion Method (Block Davidson Method)
    Using 1 initial trial vectors

     Iter   Root       Total Energy       Delta E      C RMS

   @CI  0:     0     -6.640277836959   -1.0609E+01   1.8179E-14  
    Warning: Norm of correction (root 0) is < 1.0E-13
   @CI  1:     0     -6.640277836959   0.0000E+00   8.3086E-14 c

   ==> Energetics <==

    SCF energy =           -6.610258945048225
    Total CI energy =      -6.640277836959301

   ==> FCI root 0 information <==

    FCI Root 0 energy =    -6.640277836959301

   The 20 most important determinants:

    *   1   -0.945526  (    0,    0)  1AX 2AX 
    *   2    0.157561  (    3,    3)  1AX 4AX 
    *   3    0.157561  (    6,    6)  1AX 5AX 
    *   4    0.137612  (    1,    1)  1AX 3AX 
    *   5    0.128982  (    0,    1)  1AX 2AA 3AB 
    *   6    0.128982  (    1,    0)  1AX 2AB 3AA 
    *   7    0.038911  (   10,   10)  1AX 6AX 
    *   8    0.030445  (    1,   10)  1AX 3AA 6AB 
    *   9    0.030445  (   10,    1)  1AX 3AB 6AA 
    *  10    0.018748  (   11,   11)  2AX 6AX 
    *  11   -0.006906  (    0,   10)  1AX 2AA 6AB 
    *  12   -0.006906  (   10,    0)  1AX 2AB 6AA 
    *  13    0.006342  (   10,   11)  1AA 2AB 6AX 
    *  14    0.006342  (   11,   10)  1AB 2AA 6AX 
    *  15    0.004231  (    2,   11)  2AX 3AA 6AB 
    *  16    0.004231  (   11,    2)  2AX 3AB 6AA 
    *  17   -0.003480  (   13,   13)  4AX 6AX 
    *  18   -0.003480  (   14,   14)  5AX 6AX 
    *  19   -0.003387  (    1,    2)  1AA 2AB 3AX 
    *  20   -0.003387  (    2,    1)  1AB 2AA 3AX 

		 "A good bug is a dead bug" 

			 - Starship Troopers

		 "I didn't write FORTRAN.  That's the problem."

			 - Edward Valeev

*** tstart() called on DN0a2224ae.SUNet
*** at Fri May 31 15:15:45 2019

   => Loading Basis Set <=

    Name: STO-3G
    Role: ORBITAL
    Keyword: BASIS
    atoms 1 entry H          line    19 file /anaconda3/share/psi4/basis/sto-3g.gbs 
    atoms 2 entry LI         line    31 file /anaconda3/share/psi4/basis/sto-3g.gbs 


         ---------------------------------------------------------
                                   SCF
               by Justin Turney, Rob Parrish, Andy Simmonett
                          and Daniel G. A. Smith
                              RHF Reference
                        1 Threads,   7629 MiB Core
         ---------------------------------------------------------

  ==> Geometry <==

    Molecular point group: c1
    Full point group: C_inf_v

    Geometry (in Angstrom), charge = 0, multiplicity = 1:

       Center              X                  Y                   Z               Mass       
    ------------   -----------------  -----------------  -----------------  -----------------
         H            0.000000000000     0.000000000000    -0.349758395951     1.007825032230
         LI           0.000000000000     0.000000000000     0.050241604049     7.016003436600

  Running in c1 symmetry.

  Rotational constants: A = ************  B =    119.55926  C =    119.55926 [cm^-1]
  Rotational constants: A = ************  B = 3584296.41921  C = 3584296.41921 [MHz]
  Nuclear repulsion =    3.968829080025000

  Charge       = 0
  Multiplicity = 1
  Electrons    = 4
  Nalpha       = 2
  Nbeta        = 2

  ==> Algorithm <==

  SCF Algorithm Type is PK.
  DIIS enabled.
  MOM disabled.
  Fractional occupation disabled.
  Guess Type is SAD.
  Energy threshold   = 1.00e-06
  Density threshold  = 1.00e-06
  Integral threshold = 0.00e+00

  ==> Primary Basis <==

  Basis Set: STO-3G
    Blend: STO-3G
    Number of shells: 4
    Number of basis function: 6
    Number of Cartesian functions: 6
    Spherical Harmonics?: true
    Max angular momentum: 1

  ==> Pre-Iterations <==

   -------------------------------------------------------
    Irrep   Nso     Nmo     Nalpha   Nbeta   Ndocc  Nsocc
   -------------------------------------------------------
     A          6       6       0       0       0       0
   -------------------------------------------------------
    Total       6       6       2       2       2       0
   -------------------------------------------------------

  ==> Integral Setup <==

  Using in-core PK algorithm.
   Calculation information:
      Number of atoms:                   2
      Number of AO shells:               4
      Number of primitives:             12
      Number of atomic orbitals:         6
      Number of basis functions:         6

      Integral cutoff                 1.00e-12
      Number of threads:                 1

  Performing in-core PK
  Using 462 doubles for integral storage.
  We computed 55 shell quartets total.
  Whereas there are 55 unique shell quartets.

  ==> DiskJK: Disk-Based J/K Matrices <==

    J tasked:                  Yes
    K tasked:                  Yes
    wK tasked:                  No
    Memory [MiB]:             5722
    Schwarz Cutoff:          1E-12

    OpenMP threads:              1

  Minimum eigenvalue in the overlap matrix is 1.7266820527E-01.
  Using Symmetric Orthogonalization.

  SCF Guess: Superposition of Atomic Densities via on-the-fly atomic UHF.

  ==> Iterations <==

                        Total Energy        Delta E     RMS |[F,P]|

   @RHF iter SAD:    -7.50446476094113   -7.50446e+00   0.00000e+00 
   @RHF iter   1:    -6.58954610915455    9.14919e-01   3.47075e-02 DIIS
   @RHF iter   2:    -6.61004062087600   -2.04945e-02   2.95313e-03 DIIS
   @RHF iter   3:    -6.61025826360901   -2.17643e-04   1.61093e-04 DIIS
   @RHF iter   4:    -6.61025894504822   -6.81439e-07   9.69832e-07 DIIS
  Energy and wave function converged.


  ==> Post-Iterations <==

    Orbital Energies [Eh]
    ---------------------

    Doubly Occupied:                                                      

       1A     -3.133835     2A     -0.273271  

    Virtual:                                                              

       3A      0.008644     4A      0.068762     5A      0.068762  
       6A      0.785614  

    Final Occupation by Irrep:
              A 
    DOCC [     2 ]

  @RHF Final Energy:    -6.61025894504822

   => Energetics <=

    Nuclear Repulsion Energy =              3.9688290800249999
    One-Electron Energy =                 -14.3439590199267695
    Two-Electron Energy =                   3.7648709948535450
    Total Energy =                         -6.6102589450482245

Computation Completed


Properties will be evaluated at   0.000000,   0.000000,   0.000000 [a0]

Properties computed using the SCF density matrix

  Nuclear Dipole Moment: [e a0]
     X:     0.0000      Y:     0.0000      Z:    -0.3761

  Electronic Dipole Moment: [e a0]
     X:     0.0000      Y:     0.0000      Z:     2.3763

  Dipole Moment: [e a0]
     X:     0.0000      Y:     0.0000      Z:     2.0001     Total:     2.0001

  Dipole Moment: [D]
     X:     0.0000      Y:     0.0000      Z:     5.0839     Total:     5.0839


*** tstop() called on DN0a2224ae.SUNet at Fri May 31 15:15:45 2019
Module time:
	user time   =       0.16 seconds =       0.00 minutes
	system time =       0.02 seconds =       0.00 minutes
	total time  =          0 seconds =       0.00 minutes
Total time:
	user time   =       1.04 seconds =       0.02 minutes
	system time =       0.12 seconds =       0.00 minutes
	total time  =          1 seconds =       0.02 minutes
 MINTS: Wrapper to libmints.
   by Justin Turney

   Calculation information:
      Number of threads:                 1
      Number of atoms:                   2
      Number of AO shells:               4
      Number of SO shells:               4
      Number of primitives:             12
      Number of atomic orbitals:         6
      Number of basis functions:         6

      Number of irreps:                  1
      Integral cutoff                 0.00e+00
      Number of functions per irrep: [   6 ]

 OEINTS: Overlap, kinetic, potential, dipole, and quadrupole integrals
         stored in file 35.

      Computing two-electron integrals...done
      Computed 83 non-zero two-electron integrals.
        Stored in file 33.


*** tstart() called on DN0a2224ae.SUNet
*** at Fri May 31 15:15:45 2019


	Wfn Parameters:
	--------------------
	Wavefunction         = CCSD
	Number of irreps     = 1
	Number of MOs        = 6
	Number of active MOs = 6
	AO-Basis             = NONE
	Semicanonical        = false
	Reference            = RHF
	Print Level          = 1

	IRREP	# MOs	# FZDC	# DOCC	# SOCC	# VIRT	# FZVR
	-----	-----	------	------	------	------	------
	 A	   6	    0	    2	    0	    4	    0
	Transforming integrals...
	IWL integrals will be deleted.
	(OO|OO)...
	Presorting SO-basis two-electron integrals.
	Sorting File: SO Ints (nn|nn) nbuckets = 1
	Transforming the one-electron integrals and constructing Fock matrices
	Starting first half-transformation.
	Sorting half-transformed integrals.
	First half integral transformation complete.
	Starting second half-transformation.
	Two-electron integral transformation complete.
	(OO|OV)...
	Starting second half-transformation.
	Two-electron integral transformation complete.
	(OO|VV)...
	Starting second half-transformation.
	Two-electron integral transformation complete.
	(OV|OO)...
	Starting first half-transformation.
	Sorting half-transformed integrals.
	First half integral transformation complete.
	Starting second half-transformation.
	Two-electron integral transformation complete.
	(OV|OV)...
	Starting second half-transformation.
	Two-electron integral transformation complete.
	(OV|VV)...
	Starting second half-transformation.
	Two-electron integral transformation complete.
	(VV|OO)...
	Starting first half-transformation.
	Sorting half-transformed integrals.
	First half integral transformation complete.
	Starting second half-transformation.
	Two-electron integral transformation complete.
	(VV|OV)...
	Starting second half-transformation.
	Two-electron integral transformation complete.
	(VV|VV)...
	Starting second half-transformation.
	Two-electron integral transformation complete.
	Frozen core energy     =      0.00000000000000

	Size of irrep 0 of <ab|cd> integrals:      0.000 (MW) /      0.002 (MB)
	Total:                                     0.000 (MW) /      0.002 (MB)

	Size of irrep 0 of <ia|bc> integrals:      0.000 (MW) /      0.001 (MB)
	Total:                                     0.000 (MW) /      0.001 (MB)

	Size of irrep 0 of tijab amplitudes:       0.000 (MW) /      0.001 (MB)
	Total:                                     0.000 (MW) /      0.001 (MB)

	Nuclear Rep. energy          =      3.96882908002500
	SCF energy                   =     -6.61025894504822
	One-electron energy          =    -14.34396211228424
	Two-electron energy          =      3.76487408715778
	Reference energy             =     -6.61025894510146

*** tstop() called on DN0a2224ae.SUNet at Fri May 31 15:15:45 2019
Module time:
	user time   =       0.00 seconds =       0.00 minutes
	system time =       0.06 seconds =       0.00 minutes
	total time  =          0 seconds =       0.00 minutes
Total time:
	user time   =       1.05 seconds =       0.02 minutes
	system time =       0.18 seconds =       0.00 minutes
	total time  =          1 seconds =       0.02 minutes
            **************************
            *                        *
            *        CCENERGY        *
            *                        *
            **************************

    Nuclear Rep. energy (wfn)     =    3.968829080025000
    SCF energy          (wfn)     =   -6.610258945048225
    Reference energy    (file100) =   -6.610258945101458

    Input parameters:
    -----------------
    Wave function   =     CCSD
    Reference wfn   =     RHF
    Brueckner       =     No
    Memory (Mbytes) =     8000.0
    Maxiter         =   1000000
    R_Convergence   =     1.0e-06
    E_Convergence   =     1.0e-06
    Restart         =     Yes
    DIIS            =     Yes
    AO Basis        =     NONE
    ABCD            =     NEW
    Cache Level     =     2
    Cache Type      =     LOW
    Print Level     =     1
    Num. of threads =     1
    # Amps to Print =     1000000
    Print MP2 Amps? =     No
    Analyze T2 Amps =     No
    Print Pair Ener =     No
    Local CC        =     No
    SCS-MP2         =     False
    SCSN-MP2        =     False
    SCS-CCSD        =     False

MP2 correlation energy -0.0167771063926991
                Solving CC Amplitude Equations
                ------------------------------
  Iter             Energy              RMS        T1Diag      D1Diag    New D1Diag    D2Diag
  ----     ---------------------    ---------   ----------  ----------  ----------   --------
     0        -0.016777106392699    0.000e+00    0.000000    0.000000    0.000000    0.127539
     1        -0.022584093482174    6.314e-02    0.008534    0.016993    0.016993    0.187222
     2        -0.027967412817591    3.822e-02    0.028573    0.057092    0.057092    0.250944
     3        -0.028932437367437    1.811e-02    0.048337    0.096645    0.096645    0.270272
     4        -0.030002175548238    1.047e-02    0.066896    0.133760    0.133760    0.290734
     5        -0.029708181212532    3.174e-03    0.065548    0.131066    0.131066    0.288336
     6        -0.029836432219749    1.248e-03    0.067794    0.135560    0.135560    0.290885
     7        -0.029859212458230    2.663e-04    0.067707    0.135386    0.135386    0.291106
     8        -0.029850259152349    5.499e-05    0.067621    0.135212    0.135212    0.290968
     9        -0.029850788165840    3.359e-06    0.067628    0.135227    0.135227    0.290978
    10        -0.029850789964874    6.314e-07    0.067628    0.135226    0.135226    0.290978

    Iterations converged.


    Largest TIA Amplitudes:
              1   0        -0.1350170590
              1   3         0.0073838659
              0   3         0.0027214898
              0   0         0.0015677057

    Largest TIjAb Amplitudes:
      1   1   1   1        -0.1653968630
      1   1   2   2        -0.1653968630
      1   1   0   0        -0.1618793615
      1   1   3   3        -0.0412719706
      1   1   0   3        -0.0311320632
      1   1   3   0        -0.0311320632
      0   0   3   3        -0.0198271687
      0   1   3   3         0.0066789211
      1   0   3   3         0.0066789211
      0   0   0   3        -0.0044244082
      0   0   3   0        -0.0044244082
      0   1   0   0        -0.0035448088
      1   0   0   0        -0.0035448088
      0   1   1   1        -0.0031098888
      0   1   2   2        -0.0031098888
      1   0   1   1        -0.0031098888
      1   0   2   2        -0.0031098888
      0   1   3   0        -0.0029422026
      1   0   0   3        -0.0029422026
      0   0   0   0        -0.0016385285
      0   1   0   3        -0.0014204108
      1   0   3   0        -0.0014204108
      0   0   1   1        -0.0005770273
      0   0   2   2        -0.0005770273

    SCF energy       (wfn)                    =   -6.610258945048225
    Reference energy (file100)                =   -6.610258945101458

    Opposite-spin MP2 correlation energy      =   -0.016776571686531
    Same-spin MP2 correlation energy          =   -0.000000534706169
    MP2 correlation energy                    =   -0.016777106392699
      * MP2 total energy                      =   -6.627036051494158

    Opposite-spin CCSD correlation energy     =   -0.029846760869264
    Same-spin CCSD correlation energy         =   -0.000004029095610
    CCSD correlation energy                   =   -0.029850789964874
      * CCSD total energy                     =   -6.640109735066333


    Psi4 stopped on: Friday, 31 May 2019 03:15PM
    Psi4 wall time for execution: 0:00:02.51

*** Psi4 exiting successfully. Buy a developer a beer!
