
    -----------------------------------------------------------------------
          Psi4: An Open-Source Ab Initio Electronic Structure Package
                               Psi4 1.3.2 release

                         Git: Rev {HEAD} ecbda83 


    R. M. Parrish, L. A. Burns, D. G. A. Smith, A. C. Simmonett,
    A. E. DePrince III, E. G. Hohenstein, U. Bozkaya, A. Yu. Sokolov,
    R. Di Remigio, R. M. Richard, J. F. Gonthier, A. M. James,
    H. R. McAlexander, A. Kumar, M. Saitow, X. Wang, B. P. Pritchard,
    P. Verma, H. F. Schaefer III, K. Patkowski, R. A. King, E. F. Valeev,
    F. A. Evangelista, J. M. Turney, T. D. Crawford, and C. D. Sherrill,
    J. Chem. Theory Comput. 13(7) pp 3185--3197 (2017).
    (doi: 10.1021/acs.jctc.7b00174)


                         Additional Contributions by
    P. Kraus, H. Kruse, M. H. Lechner, M. C. Schieber, R. A. Shaw,
    A. Alenaizan, R. Galvelis, Z. L. Glick, S. Lehtola, and J. P. Misiewicz

    -----------------------------------------------------------------------


    Psi4 started on: Friday, 31 May 2019 03:10PM

    Process ID: 16840
    Host:       DN0a2224ae.SUNet
    PSIDATADIR: /anaconda3/share/psi4
    Memory:     500.0 MiB
    Threads:    1
    
  ==> Input File <==

--------------------------------------------------------------------------
"""This is a template for psi4 input format."""
import numpy
import sys

from openfermion.config import *
from openfermion.hamiltonians import MolecularData
from openfermion.ops import general_basis_change

from numpy import array

sys.path.append('/anaconda3/lib/python3.6/site-packages/openfermionpsi4')
from _psi4_conversion_functions import *


# Set memory that job can use in megabytes.
memory 8000 mb

# Initialize molecular data.
_description = '2.8000000000000003'
if _description == 'None':
    _description = None
molecule = MolecularData([['H', [0, 0, 0]], ['Li', [0, 0, 2.8000000000000003]]],
                         'sto-3g',
                         1,
                         0,
                         _description,
                          filename='/anaconda3/lib/python3.6/site-packages/openfermion/data/H1-Li1_sto-3g_singlet_2.8000000000000003')

# Set molecular geometry and symmetry.
molecule mol {
H 0 0 0
Li 0 0 2.8000000000000003
symmetry c1
}
mol.set_multiplicity(1)
mol.set_molecular_charge(0)

# Set reference and guess.
if molecule.multiplicity == 1:
    set reference rhf
    set guess sad
else:
    set reference rohf
    set guess gwh

# Set global parameters of calculation.
set globals {
    basis sto-3g
    freeze_core false
    fail_on_maxiter False
    df_scf_guess false
    opdm true
    tpdm true
    soscf false
    scf_type pk
    maxiter 1e6
    num_amps_print 1e6
    r_convergence 1e-6
    d_convergence 1e-6
    e_convergence 1e-6
    ints_tolerance EQUALITY_TOLERANCE
    damping_percentage 0
}

# Run self-consistent field (SCF) calculation.
if 1:
    try:
        hf_energy, hf_wavefunction = energy('scf', return_wfn=True)
        if 1:
            print('Hartree-Fock energy for {} ({} electrons) is {}.'.format(
                molecule.name, molecule.n_electrons, hf_energy))
    except:
        if 1:
            print('WARNING: SCF calculation failed.')
        else:
            raise
    finally:
        # Get orbitals and Fock matrix.
        molecule.hf_energy = hf_energy
        molecule.nuclear_repulsion = mol.nuclear_repulsion_energy()
        molecule.canonical_orbitals = numpy.asarray(hf_wavefunction.Ca())
        molecule.overlap_integrals = numpy.asarray(hf_wavefunction.S())
        molecule.n_orbitals = molecule.canonical_orbitals.shape[0]
        molecule.n_qubits = 2 * molecule.n_orbitals
        molecule.orbital_energies = numpy.asarray(hf_wavefunction.epsilon_a())
        molecule.fock_matrix = numpy.asarray(hf_wavefunction.Fa())

        # Get integrals using MintsHelper.
        mints = MintsHelper(hf_wavefunction.basisset())
        molecule.one_body_integrals = general_basis_change(
            numpy.asarray(mints.ao_kinetic()), molecule.canonical_orbitals, (1, 0))
        molecule.one_body_integrals += general_basis_change(
            numpy.asarray(mints.ao_potential()), molecule.canonical_orbitals, (1, 0))
        two_body_integrals = numpy.asarray(mints.ao_eri())
        two_body_integrals.reshape((molecule.n_orbitals, molecule.n_orbitals,
                                    molecule.n_orbitals, molecule.n_orbitals))
        two_body_integrals = numpy.einsum('psqr', two_body_integrals)
        two_body_integrals = general_basis_change(
            two_body_integrals, molecule.canonical_orbitals, (1, 1, 0, 0))
        molecule.two_body_integrals = two_body_integrals
        molecule.save()


# Perform MP2 energy calculation if there are at least two electrons.
if 1:
    try:
        assert molecule.n_electrons > 1
        mp2_energy = energy('mp2')
        if 1:
            print('MP2 energy for {} ({} electrons) is {}.'.format(
                molecule.name, molecule.n_electrons, mp2_energy))
    except:
        if 1:
            print('WARNING: MP2 calculation failed.')
        else:
            raise
    else:
        molecule.mp2_energy = mp2_energy
        molecule.save()


# Perform configuration interaction singles and doubles (CISD) calculation.
if 1:
    set qc_module detci
    try:
        cisd_energy, cisd_wavefunction = energy('cisd', return_wfn=True)
        if 1:
            print('CISD energy for {} ({} electrons) is {}.'.format(
                molecule.name, molecule.n_electrons, cisd_energy))
    except:
        if 1:
            print('WARNING: CISD calculation failed.')
        else:
            raise
    else:
        # For the functions below, "a" and "b" refer to "up and "down" spins.
        molecule.cisd_energy = cisd_energy

        # Get 1-RDM from CISD calculation.
        cisd_one_rdm_a = numpy.array(cisd_wavefunction.get_opdm(
            0, 0, 'A', True)).reshape(molecule.n_orbitals, molecule.n_orbitals)
        cisd_one_rdm_b = numpy.array(cisd_wavefunction.get_opdm(
            0, 0, 'B', True)).reshape(molecule.n_orbitals, molecule.n_orbitals)

        # Get 2-RDM from CISD calculation.
        cisd_two_rdm_aa = numpy.array(cisd_wavefunction.get_tpdm(
            'AA', False)).reshape(molecule.n_orbitals, molecule.n_orbitals,
                                  molecule.n_orbitals, molecule.n_orbitals)
        cisd_two_rdm_ab = numpy.array(cisd_wavefunction.get_tpdm(
            'AB', False)).reshape(molecule.n_orbitals, molecule.n_orbitals,
                                  molecule.n_orbitals, molecule.n_orbitals)
        cisd_two_rdm_bb = numpy.array(cisd_wavefunction.get_tpdm(
            'BB', False)).reshape(molecule.n_orbitals, molecule.n_orbitals,
                                  molecule.n_orbitals, molecule.n_orbitals)

        # Get overall RDMs.
        cisd_one_rdm, cisd_two_rdm = unpack_spatial_rdm(
            cisd_one_rdm_a, cisd_one_rdm_b, cisd_two_rdm_aa,
            cisd_two_rdm_ab, cisd_two_rdm_bb)

        # Store 1-RDM in molecule file, 2-RDM separately in other file.
        molecule.cisd_one_rdm = cisd_one_rdm
        molecule.cisd_two_rdm = cisd_two_rdm
        molecule.save()


# Perform exact diagonalization.
if 1:
    set qc_module detci
    try:
        fci_energy, fci_wavefunction = energy('fci', return_wfn=True)
        if 1:
            print('FCI energy for {} ({} electrons) is {}.'.format(
                molecule.name, molecule.n_electrons, fci_energy))
    except:
        if 1:
            print('WARNING: FCI calculation failed.')
        else:
            raise
    finally:
        # For the functions below, "a" and "b" refer to "up and "down" spins.
        molecule.fci_energy = fci_energy

        # Get 1-RDM from FCI calculation.
        fci_one_rdm_a = numpy.array(fci_wavefunction.get_opdm(
            0, 0, 'A', True)).reshape(molecule.n_orbitals, molecule.n_orbitals)
        fci_one_rdm_b = numpy.array(fci_wavefunction.get_opdm(
            0, 0, 'B', True)).reshape(molecule.n_orbitals, molecule.n_orbitals)

        # Get 2-RDM from FCI calculation.
        fci_two_rdm_aa = numpy.array(fci_wavefunction.get_tpdm(
            'AA', False)).reshape(molecule.n_orbitals, molecule.n_orbitals,
                                  molecule.n_orbitals, molecule.n_orbitals)
        fci_two_rdm_ab = numpy.array(fci_wavefunction.get_tpdm(
            'AB', False)).reshape(molecule.n_orbitals, molecule.n_orbitals,
                                  molecule.n_orbitals, molecule.n_orbitals)
        fci_two_rdm_bb = numpy.array(fci_wavefunction.get_tpdm(
            'BB', False)).reshape(molecule.n_orbitals, molecule.n_orbitals,
                                  molecule.n_orbitals, molecule.n_orbitals)

        # Get overall RDMs.
        fci_one_rdm, fci_two_rdm = unpack_spatial_rdm(
            fci_one_rdm_a, fci_one_rdm_b,
            fci_two_rdm_aa, fci_two_rdm_ab, fci_two_rdm_bb)

        # Store 1-RDM in molecule file, 2-RDM separately in other file.
        molecule.fci_one_rdm = fci_one_rdm
        molecule.fci_two_rdm = fci_two_rdm
        molecule.save()


# Perform coupled cluster singles and doubles (CCSD) calculation.
if 1:
    set qc_module ccenergy
    try:
        ccsd_energy = energy('ccsd')
        if 1:
            print('CCSD energy for {} ({} electrons) is {}.'.format(
                molecule.name, molecule.n_electrons, ccsd_energy))
    except:
        if 1:
            print('WARNING: CCSD calculation failed.')
        else:
            raise
    else:
        molecule.ccsd_energy = ccsd_energy

        # Merge CC amplitudes into molecule by parsing
        psi_filename = outfile_name()
        single_cc_amplitudes, double_cc_amplitudes = (
            parse_psi4_ccsd_amplitudes(
                2 * molecule.n_orbitals,
                molecule.get_n_alpha_electrons(),
                molecule.get_n_beta_electrons(),
                psi_filename))

        molecule.ccsd_single_amps = single_cc_amplitudes
        molecule.ccsd_double_amps = double_cc_amplitudes
        molecule.save()
--------------------------------------------------------------------------

  Memory set to   7.451 GiB by Python driver.

*** tstart() called on DN0a2224ae.SUNet
*** at Fri May 31 15:10:16 2019

   => Loading Basis Set <=

    Name: STO-3G
    Role: ORBITAL
    Keyword: BASIS
    atoms 1 entry H          line    19 file /anaconda3/share/psi4/basis/sto-3g.gbs 
    atoms 2 entry LI         line    31 file /anaconda3/share/psi4/basis/sto-3g.gbs 


         ---------------------------------------------------------
                                   SCF
               by Justin Turney, Rob Parrish, Andy Simmonett
                          and Daniel G. A. Smith
                              RHF Reference
                        1 Threads,   7629 MiB Core
         ---------------------------------------------------------

  ==> Geometry <==

    Molecular point group: c1
    Full point group: C_inf_v

    Geometry (in Angstrom), charge = 0, multiplicity = 1:

       Center              X                  Y                   Z               Mass       
    ------------   -----------------  -----------------  -----------------  -----------------
         H            0.000000000000     0.000000000000    -2.448308771654     1.007825032230
         LI           0.000000000000     0.000000000000     0.351691228346     7.016003436600

  Running in c1 symmetry.

  Rotational constants: A = ************  B =      2.43998  C =      2.43998 [cm^-1]
  Rotational constants: A = ************  B =  73148.90651  C =  73148.90651 [MHz]
  Nuclear repulsion =    0.566975582860714

  Charge       = 0
  Multiplicity = 1
  Electrons    = 4
  Nalpha       = 2
  Nbeta        = 2

  ==> Algorithm <==

  SCF Algorithm Type is PK.
  DIIS enabled.
  MOM disabled.
  Fractional occupation disabled.
  Guess Type is SAD.
  Energy threshold   = 1.00e-06
  Density threshold  = 1.00e-06
  Integral threshold = 0.00e+00

  ==> Primary Basis <==

  Basis Set: STO-3G
    Blend: STO-3G
    Number of shells: 4
    Number of basis function: 6
    Number of Cartesian functions: 6
    Spherical Harmonics?: true
    Max angular momentum: 1

  ==> Pre-Iterations <==

   -------------------------------------------------------
    Irrep   Nso     Nmo     Nalpha   Nbeta   Ndocc  Nsocc
   -------------------------------------------------------
     A          6       6       0       0       0       0
   -------------------------------------------------------
    Total       6       6       2       2       2       0
   -------------------------------------------------------

  ==> Integral Setup <==

  Using in-core PK algorithm.
   Calculation information:
      Number of atoms:                   2
      Number of AO shells:               4
      Number of primitives:             12
      Number of atomic orbitals:         6
      Number of basis functions:         6

      Integral cutoff                 1.00e-12
      Number of threads:                 1

  Performing in-core PK
  Using 462 doubles for integral storage.
  We computed 55 shell quartets total.
  Whereas there are 55 unique shell quartets.

  ==> DiskJK: Disk-Based J/K Matrices <==

    J tasked:                  Yes
    K tasked:                  Yes
    wK tasked:                  No
    Memory [MiB]:             5722
    Schwarz Cutoff:          1E-12

    OpenMP threads:              1

  Minimum eigenvalue in the overlap matrix is 6.7928894088E-01.
  Using Symmetric Orthogonalization.

  SCF Guess: Superposition of Atomic Densities via on-the-fly atomic UHF.

  ==> Iterations <==

                        Total Energy        Delta E     RMS |[F,P]|

   @RHF iter SAD:    -7.41216614631522   -7.41217e+00   0.00000e+00 
   @RHF iter   1:    -7.66436773753768   -2.52202e-01   2.65914e-02 DIIS
   @RHF iter   2:    -7.72928336390506   -6.49156e-02   8.20551e-03 DIIS
   @RHF iter   3:    -7.73395453163335   -4.67117e-03   4.03824e-04 DIIS
   @RHF iter   4:    -7.73398015281189   -2.56212e-05   2.15111e-04 DIIS
   @RHF iter   5:    -7.73399052417930   -1.03714e-05   5.95647e-05 DIIS
   @RHF iter   6:    -7.73399133998013   -8.15801e-07   3.97543e-07 DIIS
  Energy and wave function converged.


  ==> Post-Iterations <==

    Orbital Energies [Eh]
    ---------------------

    Doubly Occupied:                                                      

       1A     -2.381850     2A     -0.188046  

    Virtual:                                                              

       3A      0.060526     4A      0.152983     5A      0.152983  
       6A      0.262378  

    Final Occupation by Irrep:
              A 
    DOCC [     2 ]

  @RHF Final Energy:    -7.73399133998013

   => Energetics <=

    Nuclear Repulsion Energy =              0.5669755828607144
    One-Electron Energy =                 -11.4621419142921184
    Two-Electron Energy =                   3.1611749914512757
    Total Energy =                         -7.7339913399801290

Computation Completed


Properties will be evaluated at   0.000000,   0.000000,   0.000000 [a0]

Properties computed using the SCF density matrix

  Nuclear Dipole Moment: [e a0]
     X:     0.0000      Y:     0.0000      Z:    -2.6328

  Electronic Dipole Moment: [e a0]
     X:     0.0000      Y:     0.0000      Z:     4.6754

  Dipole Moment: [e a0]
     X:     0.0000      Y:     0.0000      Z:     2.0426     Total:     2.0426

  Dipole Moment: [D]
     X:     0.0000      Y:     0.0000      Z:     5.1917     Total:     5.1917


*** tstop() called on DN0a2224ae.SUNet at Fri May 31 15:10:16 2019
Module time:
	user time   =       0.19 seconds =       0.00 minutes
	system time =       0.02 seconds =       0.00 minutes
	total time  =          0 seconds =       0.00 minutes
Total time:
	user time   =       0.19 seconds =       0.00 minutes
	system time =       0.02 seconds =       0.00 minutes
	total time  =          0 seconds =       0.00 minutes

*** tstart() called on DN0a2224ae.SUNet
*** at Fri May 31 15:10:16 2019

   => Loading Basis Set <=

    Name: STO-3G
    Role: ORBITAL
    Keyword: BASIS
    atoms 1 entry H          line    19 file /anaconda3/share/psi4/basis/sto-3g.gbs 
    atoms 2 entry LI         line    31 file /anaconda3/share/psi4/basis/sto-3g.gbs 


         ---------------------------------------------------------
                                   SCF
               by Justin Turney, Rob Parrish, Andy Simmonett
                          and Daniel G. A. Smith
                              RHF Reference
                        1 Threads,   7629 MiB Core
         ---------------------------------------------------------

  ==> Geometry <==

    Molecular point group: c1
    Full point group: C_inf_v

    Geometry (in Angstrom), charge = 0, multiplicity = 1:

       Center              X                  Y                   Z               Mass       
    ------------   -----------------  -----------------  -----------------  -----------------
         H            0.000000000000     0.000000000000    -2.448308771654     1.007825032230
         LI           0.000000000000     0.000000000000     0.351691228346     7.016003436600

  Running in c1 symmetry.

  Rotational constants: A = ************  B =      2.43998  C =      2.43998 [cm^-1]
  Rotational constants: A = ************  B =  73148.90651  C =  73148.90651 [MHz]
  Nuclear repulsion =    0.566975582860714

  Charge       = 0
  Multiplicity = 1
  Electrons    = 4
  Nalpha       = 2
  Nbeta        = 2

  ==> Algorithm <==

  SCF Algorithm Type is PK.
  DIIS enabled.
  MOM disabled.
  Fractional occupation disabled.
  Guess Type is SAD.
  Energy threshold   = 1.00e-06
  Density threshold  = 1.00e-06
  Integral threshold = 0.00e+00

  ==> Primary Basis <==

  Basis Set: STO-3G
    Blend: STO-3G
    Number of shells: 4
    Number of basis function: 6
    Number of Cartesian functions: 6
    Spherical Harmonics?: true
    Max angular momentum: 1

  ==> Pre-Iterations <==

   -------------------------------------------------------
    Irrep   Nso     Nmo     Nalpha   Nbeta   Ndocc  Nsocc
   -------------------------------------------------------
     A          6       6       0       0       0       0
   -------------------------------------------------------
    Total       6       6       2       2       2       0
   -------------------------------------------------------

  ==> Integral Setup <==

  Using in-core PK algorithm.
   Calculation information:
      Number of atoms:                   2
      Number of AO shells:               4
      Number of primitives:             12
      Number of atomic orbitals:         6
      Number of basis functions:         6

      Integral cutoff                 1.00e-12
      Number of threads:                 1

  Performing in-core PK
  Using 462 doubles for integral storage.
  We computed 55 shell quartets total.
  Whereas there are 55 unique shell quartets.

  ==> DiskJK: Disk-Based J/K Matrices <==

    J tasked:                  Yes
    K tasked:                  Yes
    wK tasked:                  No
    Memory [MiB]:             5722
    Schwarz Cutoff:          1E-12

    OpenMP threads:              1

  Minimum eigenvalue in the overlap matrix is 6.7928894088E-01.
  Using Symmetric Orthogonalization.

  SCF Guess: Superposition of Atomic Densities via on-the-fly atomic UHF.

  ==> Iterations <==

                        Total Energy        Delta E     RMS |[F,P]|

   @RHF iter SAD:    -7.41216614631522   -7.41217e+00   0.00000e+00 
   @RHF iter   1:    -7.66436773753768   -2.52202e-01   2.65914e-02 DIIS
   @RHF iter   2:    -7.72928336390506   -6.49156e-02   8.20551e-03 DIIS
   @RHF iter   3:    -7.73395453163334   -4.67117e-03   4.03824e-04 DIIS
   @RHF iter   4:    -7.73398015281190   -2.56212e-05   2.15111e-04 DIIS
   @RHF iter   5:    -7.73399052417929   -1.03714e-05   5.95647e-05 DIIS
   @RHF iter   6:    -7.73399133998012   -8.15801e-07   3.97543e-07 DIIS
  Energy and wave function converged.


  ==> Post-Iterations <==

    Orbital Energies [Eh]
    ---------------------

    Doubly Occupied:                                                      

       1A     -2.381850     2A     -0.188046  

    Virtual:                                                              

       3A      0.060526     4A      0.152983     5A      0.152983  
       6A      0.262378  

    Final Occupation by Irrep:
              A 
    DOCC [     2 ]

  @RHF Final Energy:    -7.73399133998012

   => Energetics <=

    Nuclear Repulsion Energy =              0.5669755828607144
    One-Electron Energy =                 -11.4621419142921095
    Two-Electron Energy =                   3.1611749914512717
    Total Energy =                         -7.7339913399801237

Computation Completed


Properties will be evaluated at   0.000000,   0.000000,   0.000000 [a0]

Properties computed using the SCF density matrix

  Nuclear Dipole Moment: [e a0]
     X:     0.0000      Y:     0.0000      Z:    -2.6328

  Electronic Dipole Moment: [e a0]
     X:     0.0000      Y:     0.0000      Z:     4.6754

  Dipole Moment: [e a0]
     X:     0.0000      Y:     0.0000      Z:     2.0426     Total:     2.0426

  Dipole Moment: [D]
     X:     0.0000      Y:     0.0000      Z:     5.1917     Total:     5.1917


*** tstop() called on DN0a2224ae.SUNet at Fri May 31 15:10:16 2019
Module time:
	user time   =       0.19 seconds =       0.00 minutes
	system time =       0.02 seconds =       0.00 minutes
	total time  =          0 seconds =       0.00 minutes
Total time:
	user time   =       0.41 seconds =       0.01 minutes
	system time =       0.04 seconds =       0.00 minutes
	total time  =          0 seconds =       0.00 minutes

*** tstart() called on DN0a2224ae.SUNet
*** at Fri May 31 15:10:16 2019


  //>>>>>>>>>>>>>>>>>>>>>>>>>>>>>>>>>>>//
  //               DFMP2               //
  //<<<<<<<<<<<<<<<<<<<<<<<<<<<<<<<<<<<//

   => Loading Basis Set <=

    Name: (STO-3G AUX)
    Role: RIFIT
    Keyword: DF_BASIS_MP2
    atoms 1 entry H          line    24 file /anaconda3/share/psi4/basis/def2-qzvpp-ri.gbs 
    atoms 2 entry LI         line    90 file /anaconda3/share/psi4/basis/def2-qzvpp-ri.gbs 

	 --------------------------------------------------------
	                          DF-MP2                         
	      2nd-Order Density-Fitted Moller-Plesset Theory     
	              RMP2 Wavefunction,   1 Threads             
	                                                         
	        Rob Parrish, Justin Turney, Andy Simmonett,      
	           Ed Hohenstein, and C. David Sherrill          
	 --------------------------------------------------------

   => Auxiliary Basis Set <=

  Basis Set: (STO-3G AUX)
    Blend: DEF2-QZVPP-RI
    Number of shells: 43
    Number of basis function: 157
    Number of Cartesian functions: 201
    Spherical Harmonics?: true
    Max angular momentum: 4

	 --------------------------------------------------------
	                 NBF =     6, NAUX =   157
	 --------------------------------------------------------
	   CLASS    FOCC     OCC    AOCC    AVIR     VIR    FVIR
	   PAIRS       0       2       2       4       4       0
	 --------------------------------------------------------

	-----------------------------------------------------------
	 ==================> DF-MP2 Energies <==================== 
	-----------------------------------------------------------
	 Reference Energy          =      -7.7339913399801237 [Eh]
	 Singles Energy            =      -0.0000000000000000 [Eh]
	 Same-Spin Energy          =      -0.0000027695531277 [Eh]
	 Opposite-Spin Energy      =      -0.0368229089679444 [Eh]
	 Correlation Energy        =      -0.0368256785210721 [Eh]
	 Total Energy              =      -7.7708170185011953 [Eh]
	-----------------------------------------------------------
	 ================> DF-SCS-MP2 Energies <================== 
	-----------------------------------------------------------
	 SCS Same-Spin Scale       =       0.3333333333333333 [-]
	 SCS Opposite-Spin Scale   =       1.2000000000000000 [-]
	 SCS Same-Spin Energy      =      -0.0000009231843759 [Eh]
	 SCS Opposite-Spin Energy  =      -0.0441874907615333 [Eh]
	 SCS Correlation Energy    =      -0.0441884139459092 [Eh]
	 SCS Total Energy          =      -7.7781797539260324 [Eh]
	-----------------------------------------------------------


*** tstop() called on DN0a2224ae.SUNet at Fri May 31 15:10:16 2019
Module time:
	user time   =       0.08 seconds =       0.00 minutes
	system time =       0.00 seconds =       0.00 minutes
	total time  =          0 seconds =       0.00 minutes
Total time:
	user time   =       0.49 seconds =       0.01 minutes
	system time =       0.04 seconds =       0.00 minutes
	total time  =          0 seconds =       0.00 minutes

*** tstart() called on DN0a2224ae.SUNet
*** at Fri May 31 15:10:16 2019

   => Loading Basis Set <=

    Name: STO-3G
    Role: ORBITAL
    Keyword: BASIS
    atoms 1 entry H          line    19 file /anaconda3/share/psi4/basis/sto-3g.gbs 
    atoms 2 entry LI         line    31 file /anaconda3/share/psi4/basis/sto-3g.gbs 


         ---------------------------------------------------------
                                   SCF
               by Justin Turney, Rob Parrish, Andy Simmonett
                          and Daniel G. A. Smith
                              RHF Reference
                        1 Threads,   7629 MiB Core
         ---------------------------------------------------------

  ==> Geometry <==

    Molecular point group: c1
    Full point group: C_inf_v

    Geometry (in Angstrom), charge = 0, multiplicity = 1:

       Center              X                  Y                   Z               Mass       
    ------------   -----------------  -----------------  -----------------  -----------------
         H            0.000000000000     0.000000000000    -2.448308771654     1.007825032230
         LI           0.000000000000     0.000000000000     0.351691228346     7.016003436600

  Running in c1 symmetry.

  Rotational constants: A = ************  B =      2.43998  C =      2.43998 [cm^-1]
  Rotational constants: A = ************  B =  73148.90651  C =  73148.90651 [MHz]
  Nuclear repulsion =    0.566975582860714

  Charge       = 0
  Multiplicity = 1
  Electrons    = 4
  Nalpha       = 2
  Nbeta        = 2

  ==> Algorithm <==

  SCF Algorithm Type is PK.
  DIIS enabled.
  MOM disabled.
  Fractional occupation disabled.
  Guess Type is SAD.
  Energy threshold   = 1.00e-06
  Density threshold  = 1.00e-06
  Integral threshold = 0.00e+00

  ==> Primary Basis <==

  Basis Set: STO-3G
    Blend: STO-3G
    Number of shells: 4
    Number of basis function: 6
    Number of Cartesian functions: 6
    Spherical Harmonics?: true
    Max angular momentum: 1

  ==> Pre-Iterations <==

   -------------------------------------------------------
    Irrep   Nso     Nmo     Nalpha   Nbeta   Ndocc  Nsocc
   -------------------------------------------------------
     A          6       6       0       0       0       0
   -------------------------------------------------------
    Total       6       6       2       2       2       0
   -------------------------------------------------------

  ==> Integral Setup <==

  Using in-core PK algorithm.
   Calculation information:
      Number of atoms:                   2
      Number of AO shells:               4
      Number of primitives:             12
      Number of atomic orbitals:         6
      Number of basis functions:         6

      Integral cutoff                 1.00e-12
      Number of threads:                 1

  Performing in-core PK
  Using 462 doubles for integral storage.
  We computed 55 shell quartets total.
  Whereas there are 55 unique shell quartets.

  ==> DiskJK: Disk-Based J/K Matrices <==

    J tasked:                  Yes
    K tasked:                  Yes
    wK tasked:                  No
    Memory [MiB]:             5722
    Schwarz Cutoff:          1E-12

    OpenMP threads:              1

  Minimum eigenvalue in the overlap matrix is 6.7928894088E-01.
  Using Symmetric Orthogonalization.

  SCF Guess: Superposition of Atomic Densities via on-the-fly atomic UHF.

  ==> Iterations <==

                        Total Energy        Delta E     RMS |[F,P]|

   @RHF iter SAD:    -7.41216614631522   -7.41217e+00   0.00000e+00 
   @RHF iter   1:    -7.66436773753768   -2.52202e-01   2.65914e-02 DIIS
   @RHF iter   2:    -7.72928336390506   -6.49156e-02   8.20551e-03 DIIS
   @RHF iter   3:    -7.73395453163334   -4.67117e-03   4.03824e-04 DIIS
   @RHF iter   4:    -7.73398015281190   -2.56212e-05   2.15111e-04 DIIS
   @RHF iter   5:    -7.73399052417929   -1.03714e-05   5.95647e-05 DIIS
   @RHF iter   6:    -7.73399133998012   -8.15801e-07   3.97543e-07 DIIS
  Energy and wave function converged.


  ==> Post-Iterations <==

    Orbital Energies [Eh]
    ---------------------

    Doubly Occupied:                                                      

       1A     -2.381850     2A     -0.188046  

    Virtual:                                                              

       3A      0.060526     4A      0.152983     5A      0.152983  
       6A      0.262378  

    Final Occupation by Irrep:
              A 
    DOCC [     2 ]

  @RHF Final Energy:    -7.73399133998012

   => Energetics <=

    Nuclear Repulsion Energy =              0.5669755828607144
    One-Electron Energy =                 -11.4621419142921095
    Two-Electron Energy =                   3.1611749914512717
    Total Energy =                         -7.7339913399801237

Computation Completed


Properties will be evaluated at   0.000000,   0.000000,   0.000000 [a0]

Properties computed using the SCF density matrix

  Nuclear Dipole Moment: [e a0]
     X:     0.0000      Y:     0.0000      Z:    -2.6328

  Electronic Dipole Moment: [e a0]
     X:     0.0000      Y:     0.0000      Z:     4.6754

  Dipole Moment: [e a0]
     X:     0.0000      Y:     0.0000      Z:     2.0426     Total:     2.0426

  Dipole Moment: [D]
     X:     0.0000      Y:     0.0000      Z:     5.1917     Total:     5.1917


*** tstop() called on DN0a2224ae.SUNet at Fri May 31 15:10:17 2019
Module time:
	user time   =       0.17 seconds =       0.00 minutes
	system time =       0.02 seconds =       0.00 minutes
	total time  =          1 seconds =       0.02 minutes
Total time:
	user time   =       0.69 seconds =       0.01 minutes
	system time =       0.06 seconds =       0.00 minutes
	total time  =          1 seconds =       0.02 minutes
 MINTS: Wrapper to libmints.
   by Justin Turney

   Calculation information:
      Number of threads:                 1
      Number of atoms:                   2
      Number of AO shells:               4
      Number of SO shells:               4
      Number of primitives:             12
      Number of atomic orbitals:         6
      Number of basis functions:         6

      Number of irreps:                  1
      Integral cutoff                 0.00e+00
      Number of functions per irrep: [   6 ]

 OEINTS: Overlap, kinetic, potential, dipole, and quadrupole integrals
         stored in file 35.

      Computing two-electron integrals...done
      Computed 83 non-zero two-electron integrals.
        Stored in file 33.


         ---------------------------------------------------------
                          Configuration Interaction
                            (a 'D E T C I' module)

                 C. David Sherrill, Daniel G. A. Smith, and
                              Matt L. Leininger
         ---------------------------------------------------------


   ==> Parameters <==

    EX LEVEL       =        2      H0 BLOCKSIZE  =     1000
    VAL EX LEVEL   =        0      H0 GUESS SIZE =     1000
    H0COUPLINGSIZE =        0      H0 COUPLING   =       NO
    MAXITER        =       24      NUM PRINT     =       20
    NUM ROOTS      =        1      ICORE         =        1
    PRINT LVL      =        1      FCI           =       NO
    R CONV         = 1.00e-06      MIXED         =      YES
    E CONV         = 1.00e-06      MIXED4        =      YES
    R4S            =       NO      REPL OTF      =       NO
    DIAG METHOD    =      SEM      FOLLOW ROOT   =        0
    PRECONDITIONER = DAVIDSON      UPDATE        = DAVIDSON
    S              =   0.0000      Ms0           =      YES
    GUESS VECTOR   =  H0BLOCK      OPENTYPE      =     NONE
    COLLAPSE SIZE  =        1      HD AVG        = EVANGELISTI
    MAX NUM VECS   =       25      REF SYM       =     AUTO
    IOPEN        =       NO

    EX ALLOW       =  1  1 
    STATE AVERAGE  =  0(1.00) 

   ==> CI Orbital and Space information <==

    RAS1 LVL      =        1      A RAS3 MAX    =        2
    RAS1 MIN      =        2      B RAS3 MAX    =        2
    A RAS1 LVL    =        1      RAS4 LVL      =        6
    A RAS1 MIN    =        0      A RAS4 MAX    =        0
    A RAS1 MAX    =        2      B RAS4 MAX    =        0
    B RAS1 LVL    =        1      RAS4 MAX      =        0
    B RAS1 MIN    =        0      A RAS34 MAX   =        2
    B RAS1 MAX    =        2      B RAS34 MAX   =        2
    RAS3 LVL      =        2      RAS34 MAX     =        2
    RAS3 MAX      =        2
   ------------------------------------
               Space    Total     A
   ------------------------------------
                 Nso        6     6
                 Nmo        6     6
               Ndocc        2     2
               Nsocc        0     0
   ------------------------------------
              CI Spaces
   ------------------------------------
        Dropped DOCC        0     0
                RAS1        2     2
                RAS2        0     0
                RAS3        4     4
                RAS4        0     0
      Active (total)        6     6
        Dropped UOCC        0     0
   ------------------------------------

   ==> Setting up CI strings <==

    There are 15 alpha and 15 beta strings
    The CI space requires 93 (9.30E+01) determinants and 6 blocks

   ==> Transforming CI integrals <==

	Presorting SO-basis two-electron integrals.
	Sorting File: SO Ints (nn|nn) nbuckets = 1
	Transforming the one-electron integrals and constructing Fock matrices
	Starting first half-transformation.
	Sorting half-transformed integrals.
	First half integral transformation complete.
	Starting second half-transformation.
	Two-electron integral transformation complete.

   ==> Starting CI iterations <==

    H0 Block Eigenvalue =  -7.80669141

    Simultaneous Expansion Method (Block Davidson Method)
    Using 1 initial trial vectors

     Iter   Root       Total Energy       Delta E      C RMS

   @CI  0:     0     -7.806691413413   -8.3737E+00   1.3757E-14  
    Warning: Norm of correction (root 0) is < 1.0E-13
   @CI  1:     0     -7.806691413413   1.7764E-15   3.4569E-14 c

   ==> Energetics <==

    SCF energy =           -7.733991339980124
    Total CI energy =      -7.806691413412806

   ==> CISD root 0 information <==

    CISD Root 0 energy =    -7.806691413412806

   The 20 most important determinants:

    *   1   -0.882955  (    0,    0)  1AX 2AX 
    *   2    0.223422  (    1,    1)  1AX 3AX 
    *   3    0.212902  (    1,    7)  1AX 3AA 6AB 
    *   4    0.212902  (    7,    1)  1AX 3AB 6AA 
    *   5    0.192651  (    7,    7)  1AX 6AX 
    *   6    0.142213  (    0,    1)  1AX 2AA 3AB 
    *   7    0.142213  (    1,    0)  1AX 2AB 3AA 
    *   8   -0.030335  (    0,    7)  1AX 2AA 6AB 
    *   9   -0.030335  (    7,    0)  1AX 2AB 6AA 
    *  10    0.012691  (    5,    5)  1AX 5AX 
    *  11    0.012691  (    3,    3)  1AX 4AX 
    *  12    0.003399  (    5,    6)  1AA 2AB 5AX 
    *  13    0.003399  (    6,    5)  1AB 2AA 5AX 
    *  14    0.003399  (    3,    4)  1AA 2AB 4AX 
    *  15    0.003399  (    4,    3)  1AB 2AA 4AX 
    *  16   -0.002863  (    1,    8)  1AA 2AB 3AA 6AB 
    *  17   -0.002863  (    8,    1)  1AB 2AA 3AB 6AA 
    *  18    0.002428  (    2,    2)  2AX 3AX 
    *  19   -0.002070  (    2,    7)  1AB 2AA 3AA 6AB 
    *  20   -0.002070  (    7,    2)  1AA 2AB 3AB 6AA 

		 "A good bug is a dead bug" 

			 - Starship Troopers

		 "I didn't write FORTRAN.  That's the problem."

			 - Edward Valeev

*** tstart() called on DN0a2224ae.SUNet
*** at Fri May 31 15:10:17 2019

   => Loading Basis Set <=

    Name: STO-3G
    Role: ORBITAL
    Keyword: BASIS
    atoms 1 entry H          line    19 file /anaconda3/share/psi4/basis/sto-3g.gbs 
    atoms 2 entry LI         line    31 file /anaconda3/share/psi4/basis/sto-3g.gbs 


         ---------------------------------------------------------
                                   SCF
               by Justin Turney, Rob Parrish, Andy Simmonett
                          and Daniel G. A. Smith
                              RHF Reference
                        1 Threads,   7629 MiB Core
         ---------------------------------------------------------

  ==> Geometry <==

    Molecular point group: c1
    Full point group: C_inf_v

    Geometry (in Angstrom), charge = 0, multiplicity = 1:

       Center              X                  Y                   Z               Mass       
    ------------   -----------------  -----------------  -----------------  -----------------
         H            0.000000000000     0.000000000000    -2.448308771654     1.007825032230
         LI           0.000000000000     0.000000000000     0.351691228346     7.016003436600

  Running in c1 symmetry.

  Rotational constants: A = ************  B =      2.43998  C =      2.43998 [cm^-1]
  Rotational constants: A = ************  B =  73148.90651  C =  73148.90651 [MHz]
  Nuclear repulsion =    0.566975582860714

  Charge       = 0
  Multiplicity = 1
  Electrons    = 4
  Nalpha       = 2
  Nbeta        = 2

  ==> Algorithm <==

  SCF Algorithm Type is PK.
  DIIS enabled.
  MOM disabled.
  Fractional occupation disabled.
  Guess Type is SAD.
  Energy threshold   = 1.00e-06
  Density threshold  = 1.00e-06
  Integral threshold = 0.00e+00

  ==> Primary Basis <==

  Basis Set: STO-3G
    Blend: STO-3G
    Number of shells: 4
    Number of basis function: 6
    Number of Cartesian functions: 6
    Spherical Harmonics?: true
    Max angular momentum: 1

  ==> Pre-Iterations <==

   -------------------------------------------------------
    Irrep   Nso     Nmo     Nalpha   Nbeta   Ndocc  Nsocc
   -------------------------------------------------------
     A          6       6       0       0       0       0
   -------------------------------------------------------
    Total       6       6       2       2       2       0
   -------------------------------------------------------

  ==> Integral Setup <==

  Using in-core PK algorithm.
   Calculation information:
      Number of atoms:                   2
      Number of AO shells:               4
      Number of primitives:             12
      Number of atomic orbitals:         6
      Number of basis functions:         6

      Integral cutoff                 1.00e-12
      Number of threads:                 1

  Performing in-core PK
  Using 462 doubles for integral storage.
  We computed 55 shell quartets total.
  Whereas there are 55 unique shell quartets.

  ==> DiskJK: Disk-Based J/K Matrices <==

    J tasked:                  Yes
    K tasked:                  Yes
    wK tasked:                  No
    Memory [MiB]:             5722
    Schwarz Cutoff:          1E-12

    OpenMP threads:              1

  Minimum eigenvalue in the overlap matrix is 6.7928894088E-01.
  Using Symmetric Orthogonalization.

  SCF Guess: Superposition of Atomic Densities via on-the-fly atomic UHF.

  ==> Iterations <==

                        Total Energy        Delta E     RMS |[F,P]|

   @RHF iter SAD:    -7.41216614631522   -7.41217e+00   0.00000e+00 
   @RHF iter   1:    -7.66436773753768   -2.52202e-01   2.65914e-02 DIIS
   @RHF iter   2:    -7.72928336390506   -6.49156e-02   8.20551e-03 DIIS
   @RHF iter   3:    -7.73395453163334   -4.67117e-03   4.03824e-04 DIIS
   @RHF iter   4:    -7.73398015281190   -2.56212e-05   2.15111e-04 DIIS
   @RHF iter   5:    -7.73399052417929   -1.03714e-05   5.95647e-05 DIIS
   @RHF iter   6:    -7.73399133998012   -8.15801e-07   3.97543e-07 DIIS
  Energy and wave function converged.


  ==> Post-Iterations <==

    Orbital Energies [Eh]
    ---------------------

    Doubly Occupied:                                                      

       1A     -2.381850     2A     -0.188046  

    Virtual:                                                              

       3A      0.060526     4A      0.152983     5A      0.152983  
       6A      0.262378  

    Final Occupation by Irrep:
              A 
    DOCC [     2 ]

  @RHF Final Energy:    -7.73399133998012

   => Energetics <=

    Nuclear Repulsion Energy =              0.5669755828607144
    One-Electron Energy =                 -11.4621419142921095
    Two-Electron Energy =                   3.1611749914512717
    Total Energy =                         -7.7339913399801237

Computation Completed


Properties will be evaluated at   0.000000,   0.000000,   0.000000 [a0]

Properties computed using the SCF density matrix

  Nuclear Dipole Moment: [e a0]
     X:     0.0000      Y:     0.0000      Z:    -2.6328

  Electronic Dipole Moment: [e a0]
     X:     0.0000      Y:     0.0000      Z:     4.6754

  Dipole Moment: [e a0]
     X:     0.0000      Y:     0.0000      Z:     2.0426     Total:     2.0426

  Dipole Moment: [D]
     X:     0.0000      Y:     0.0000      Z:     5.1917     Total:     5.1917


*** tstop() called on DN0a2224ae.SUNet at Fri May 31 15:10:17 2019
Module time:
	user time   =       0.17 seconds =       0.00 minutes
	system time =       0.01 seconds =       0.00 minutes
	total time  =          0 seconds =       0.00 minutes
Total time:
	user time   =       0.90 seconds =       0.02 minutes
	system time =       0.09 seconds =       0.00 minutes
	total time  =          1 seconds =       0.02 minutes
 MINTS: Wrapper to libmints.
   by Justin Turney

   Calculation information:
      Number of threads:                 1
      Number of atoms:                   2
      Number of AO shells:               4
      Number of SO shells:               4
      Number of primitives:             12
      Number of atomic orbitals:         6
      Number of basis functions:         6

      Number of irreps:                  1
      Integral cutoff                 0.00e+00
      Number of functions per irrep: [   6 ]

 OEINTS: Overlap, kinetic, potential, dipole, and quadrupole integrals
         stored in file 35.

      Computing two-electron integrals...done
      Computed 83 non-zero two-electron integrals.
        Stored in file 33.


         ---------------------------------------------------------
                          Configuration Interaction
                            (a 'D E T C I' module)

                 C. David Sherrill, Daniel G. A. Smith, and
                              Matt L. Leininger
         ---------------------------------------------------------


   ==> Parameters <==

    EX LEVEL       =        4      H0 BLOCKSIZE  =     1000
    VAL EX LEVEL   =        0      H0 GUESS SIZE =     1000
    H0COUPLINGSIZE =        0      H0 COUPLING   =       NO
    MAXITER        =       24      NUM PRINT     =       20
    NUM ROOTS      =        1      ICORE         =        1
    PRINT LVL      =        1      FCI           =      YES
    R CONV         = 1.00e-06      MIXED         =      YES
    E CONV         = 1.00e-06      MIXED4        =      YES
    R4S            =       NO      REPL OTF      =       NO
    DIAG METHOD    =      SEM      FOLLOW ROOT   =        0
    PRECONDITIONER = DAVIDSON      UPDATE        = DAVIDSON
    S              =   0.0000      Ms0           =      YES
    GUESS VECTOR   =  H0BLOCK      OPENTYPE      =     NONE
    COLLAPSE SIZE  =        1      HD AVG        = EVANGELISTI
    MAX NUM VECS   =       25      REF SYM       =     AUTO
    IOPEN        =       NO

    EX ALLOW       =  1  1  1  1 
    STATE AVERAGE  =  0(1.00) 

   ==> CI Orbital and Space information <==

   ------------------------------------
               Space    Total     A
   ------------------------------------
                 Nso        6     6
                 Nmo        6     6
               Ndocc        2     2
               Nsocc        0     0
   ------------------------------------
              CI Spaces
   ------------------------------------
        Dropped DOCC        0     0
              Active        6     6
        Dropped UOCC        0     0
   ------------------------------------

   ==> Setting up CI strings <==

    There are 15 alpha and 15 beta strings
    The CI space requires 225 (2.25E+02) determinants and 1 blocks

   ==> Transforming CI integrals <==

	Presorting SO-basis two-electron integrals.
	Sorting File: SO Ints (nn|nn) nbuckets = 1
	Transforming the one-electron integrals and constructing Fock matrices
	Starting first half-transformation.
	Sorting half-transformed integrals.
	First half integral transformation complete.
	Starting second half-transformation.
	Two-electron integral transformation complete.

   ==> Starting CI iterations <==

    H0 Block Eigenvalue =  -7.80676340

    Simultaneous Expansion Method (Block Davidson Method)
    Using 1 initial trial vectors

     Iter   Root       Total Energy       Delta E      C RMS

   @CI  0:     0     -7.806763402504   -8.3737E+00   7.9087E-14  
    Warning: Norm of correction (root 0) is < 1.0E-13
   @CI  1:     0     -7.806763402504   0.0000E+00   2.1488E-13 c

   ==> Energetics <==

    SCF energy =           -7.733991339980124
    Total CI energy =      -7.806763402503853

   ==> FCI root 0 information <==

    FCI Root 0 energy =    -7.806763402503853

   The 20 most important determinants:

    *   1   -0.882613  (    0,    0)  1AX 2AX 
    *   2    0.223975  (    1,    1)  1AX 3AX 
    *   3    0.213075  (    1,   10)  1AX 3AA 6AB 
    *   4    0.213075  (   10,    1)  1AX 3AB 6AA 
    *   5    0.192486  (   10,   10)  1AX 6AX 
    *   6    0.142587  (    0,    1)  1AX 2AA 3AB 
    *   7    0.142587  (    1,    0)  1AX 2AB 3AA 
    *   8   -0.030521  (    0,   10)  1AX 2AA 6AB 
    *   9   -0.030521  (   10,    0)  1AX 2AB 6AA 
    *  10    0.012795  (    6,    6)  1AX 5AX 
    *  11    0.012795  (    3,    3)  1AX 4AX 
    *  12    0.003524  (    3,    4)  1AA 2AB 4AX 
    *  13    0.003524  (    4,    3)  1AB 2AA 4AX 
    *  14    0.003524  (    6,    7)  1AA 2AB 5AX 
    *  15    0.003524  (    7,    6)  1AB 2AA 5AX 
    *  16   -0.002964  (    1,   11)  1AA 2AB 3AA 6AB 
    *  17   -0.002964  (   11,    1)  1AB 2AA 3AB 6AA 
    *  18    0.002450  (    2,    2)  2AX 3AX 
    *  19   -0.002141  (    2,   10)  1AB 2AA 3AA 6AB 
    *  20   -0.002141  (   10,    2)  1AA 2AB 3AB 6AA 

		 "A good bug is a dead bug" 

			 - Starship Troopers

		 "I didn't write FORTRAN.  That's the problem."

			 - Edward Valeev

*** tstart() called on DN0a2224ae.SUNet
*** at Fri May 31 15:10:17 2019

   => Loading Basis Set <=

    Name: STO-3G
    Role: ORBITAL
    Keyword: BASIS
    atoms 1 entry H          line    19 file /anaconda3/share/psi4/basis/sto-3g.gbs 
    atoms 2 entry LI         line    31 file /anaconda3/share/psi4/basis/sto-3g.gbs 


         ---------------------------------------------------------
                                   SCF
               by Justin Turney, Rob Parrish, Andy Simmonett
                          and Daniel G. A. Smith
                              RHF Reference
                        1 Threads,   7629 MiB Core
         ---------------------------------------------------------

  ==> Geometry <==

    Molecular point group: c1
    Full point group: C_inf_v

    Geometry (in Angstrom), charge = 0, multiplicity = 1:

       Center              X                  Y                   Z               Mass       
    ------------   -----------------  -----------------  -----------------  -----------------
         H            0.000000000000     0.000000000000    -2.448308771654     1.007825032230
         LI           0.000000000000     0.000000000000     0.351691228346     7.016003436600

  Running in c1 symmetry.

  Rotational constants: A = ************  B =      2.43998  C =      2.43998 [cm^-1]
  Rotational constants: A = ************  B =  73148.90651  C =  73148.90651 [MHz]
  Nuclear repulsion =    0.566975582860714

  Charge       = 0
  Multiplicity = 1
  Electrons    = 4
  Nalpha       = 2
  Nbeta        = 2

  ==> Algorithm <==

  SCF Algorithm Type is PK.
  DIIS enabled.
  MOM disabled.
  Fractional occupation disabled.
  Guess Type is SAD.
  Energy threshold   = 1.00e-06
  Density threshold  = 1.00e-06
  Integral threshold = 0.00e+00

  ==> Primary Basis <==

  Basis Set: STO-3G
    Blend: STO-3G
    Number of shells: 4
    Number of basis function: 6
    Number of Cartesian functions: 6
    Spherical Harmonics?: true
    Max angular momentum: 1

  ==> Pre-Iterations <==

   -------------------------------------------------------
    Irrep   Nso     Nmo     Nalpha   Nbeta   Ndocc  Nsocc
   -------------------------------------------------------
     A          6       6       0       0       0       0
   -------------------------------------------------------
    Total       6       6       2       2       2       0
   -------------------------------------------------------

  ==> Integral Setup <==

  Using in-core PK algorithm.
   Calculation information:
      Number of atoms:                   2
      Number of AO shells:               4
      Number of primitives:             12
      Number of atomic orbitals:         6
      Number of basis functions:         6

      Integral cutoff                 1.00e-12
      Number of threads:                 1

  Performing in-core PK
  Using 462 doubles for integral storage.
  We computed 55 shell quartets total.
  Whereas there are 55 unique shell quartets.

  ==> DiskJK: Disk-Based J/K Matrices <==

    J tasked:                  Yes
    K tasked:                  Yes
    wK tasked:                  No
    Memory [MiB]:             5722
    Schwarz Cutoff:          1E-12

    OpenMP threads:              1

  Minimum eigenvalue in the overlap matrix is 6.7928894088E-01.
  Using Symmetric Orthogonalization.

  SCF Guess: Superposition of Atomic Densities via on-the-fly atomic UHF.

  ==> Iterations <==

                        Total Energy        Delta E     RMS |[F,P]|

   @RHF iter SAD:    -7.41216614631522   -7.41217e+00   0.00000e+00 
   @RHF iter   1:    -7.66436773753768   -2.52202e-01   2.65914e-02 DIIS
   @RHF iter   2:    -7.72928336390506   -6.49156e-02   8.20551e-03 DIIS
   @RHF iter   3:    -7.73395453163334   -4.67117e-03   4.03824e-04 DIIS
   @RHF iter   4:    -7.73398015281190   -2.56212e-05   2.15111e-04 DIIS
   @RHF iter   5:    -7.73399052417929   -1.03714e-05   5.95647e-05 DIIS
   @RHF iter   6:    -7.73399133998012   -8.15801e-07   3.97543e-07 DIIS
  Energy and wave function converged.


  ==> Post-Iterations <==

    Orbital Energies [Eh]
    ---------------------

    Doubly Occupied:                                                      

       1A     -2.381850     2A     -0.188046  

    Virtual:                                                              

       3A      0.060526     4A      0.152983     5A      0.152983  
       6A      0.262378  

    Final Occupation by Irrep:
              A 
    DOCC [     2 ]

  @RHF Final Energy:    -7.73399133998012

   => Energetics <=

    Nuclear Repulsion Energy =              0.5669755828607144
    One-Electron Energy =                 -11.4621419142921095
    Two-Electron Energy =                   3.1611749914512717
    Total Energy =                         -7.7339913399801237

Computation Completed


Properties will be evaluated at   0.000000,   0.000000,   0.000000 [a0]

Properties computed using the SCF density matrix

  Nuclear Dipole Moment: [e a0]
     X:     0.0000      Y:     0.0000      Z:    -2.6328

  Electronic Dipole Moment: [e a0]
     X:     0.0000      Y:     0.0000      Z:     4.6754

  Dipole Moment: [e a0]
     X:     0.0000      Y:     0.0000      Z:     2.0426     Total:     2.0426

  Dipole Moment: [D]
     X:     0.0000      Y:     0.0000      Z:     5.1917     Total:     5.1917


*** tstop() called on DN0a2224ae.SUNet at Fri May 31 15:10:17 2019
Module time:
	user time   =       0.16 seconds =       0.00 minutes
	system time =       0.01 seconds =       0.00 minutes
	total time  =          0 seconds =       0.00 minutes
Total time:
	user time   =       1.11 seconds =       0.02 minutes
	system time =       0.12 seconds =       0.00 minutes
	total time  =          1 seconds =       0.02 minutes
 MINTS: Wrapper to libmints.
   by Justin Turney

   Calculation information:
      Number of threads:                 1
      Number of atoms:                   2
      Number of AO shells:               4
      Number of SO shells:               4
      Number of primitives:             12
      Number of atomic orbitals:         6
      Number of basis functions:         6

      Number of irreps:                  1
      Integral cutoff                 0.00e+00
      Number of functions per irrep: [   6 ]

 OEINTS: Overlap, kinetic, potential, dipole, and quadrupole integrals
         stored in file 35.

      Computing two-electron integrals...done
      Computed 83 non-zero two-electron integrals.
        Stored in file 33.


*** tstart() called on DN0a2224ae.SUNet
*** at Fri May 31 15:10:17 2019


	Wfn Parameters:
	--------------------
	Wavefunction         = CCSD
	Number of irreps     = 1
	Number of MOs        = 6
	Number of active MOs = 6
	AO-Basis             = NONE
	Semicanonical        = false
	Reference            = RHF
	Print Level          = 1

	IRREP	# MOs	# FZDC	# DOCC	# SOCC	# VIRT	# FZVR
	-----	-----	------	------	------	------	------
	 A	   6	    0	    2	    0	    4	    0
	Transforming integrals...
	IWL integrals will be deleted.
	(OO|OO)...
	Presorting SO-basis two-electron integrals.
	Sorting File: SO Ints (nn|nn) nbuckets = 1
	Transforming the one-electron integrals and constructing Fock matrices
	Starting first half-transformation.
	Sorting half-transformed integrals.
	First half integral transformation complete.
	Starting second half-transformation.
	Two-electron integral transformation complete.
	(OO|OV)...
	Starting second half-transformation.
	Two-electron integral transformation complete.
	(OO|VV)...
	Starting second half-transformation.
	Two-electron integral transformation complete.
	(OV|OO)...
	Starting first half-transformation.
	Sorting half-transformed integrals.
	First half integral transformation complete.
	Starting second half-transformation.
	Two-electron integral transformation complete.
	(OV|OV)...
	Starting second half-transformation.
	Two-electron integral transformation complete.
	(OV|VV)...
	Starting second half-transformation.
	Two-electron integral transformation complete.
	(VV|OO)...
	Starting first half-transformation.
	Sorting half-transformed integrals.
	First half integral transformation complete.
	Starting second half-transformation.
	Two-electron integral transformation complete.
	(VV|OV)...
	Starting second half-transformation.
	Two-electron integral transformation complete.
	(VV|VV)...
	Starting second half-transformation.
	Two-electron integral transformation complete.
	Frozen core energy     =      0.00000000000000

	Size of irrep 0 of <ab|cd> integrals:      0.000 (MW) /      0.002 (MB)
	Total:                                     0.000 (MW) /      0.002 (MB)

	Size of irrep 0 of <ia|bc> integrals:      0.000 (MW) /      0.001 (MB)
	Total:                                     0.000 (MW) /      0.001 (MB)

	Size of irrep 0 of tijab amplitudes:       0.000 (MW) /      0.001 (MB)
	Total:                                     0.000 (MW) /      0.001 (MB)

	Nuclear Rep. energy          =      0.56697558286071
	SCF energy                   =     -7.73399133998012
	One-electron energy          =    -11.46214221286176
	Two-electron energy          =      3.16117528999247
	Reference energy             =     -7.73399134000858

*** tstop() called on DN0a2224ae.SUNet at Fri May 31 15:10:17 2019
Module time:
	user time   =       0.01 seconds =       0.00 minutes
	system time =       0.05 seconds =       0.00 minutes
	total time  =          0 seconds =       0.00 minutes
Total time:
	user time   =       1.12 seconds =       0.02 minutes
	system time =       0.18 seconds =       0.00 minutes
	total time  =          1 seconds =       0.02 minutes
            **************************
            *                        *
            *        CCENERGY        *
            *                        *
            **************************

    Nuclear Rep. energy (wfn)     =    0.566975582860714
    SCF energy          (wfn)     =   -7.733991339980124
    Reference energy    (file100) =   -7.733991340008576

    Input parameters:
    -----------------
    Wave function   =     CCSD
    Reference wfn   =     RHF
    Brueckner       =     No
    Memory (Mbytes) =     8000.0
    Maxiter         =   1000000
    R_Convergence   =     1.0e-06
    E_Convergence   =     1.0e-06
    Restart         =     Yes
    DIIS            =     Yes
    AO Basis        =     NONE
    ABCD            =     NEW
    Cache Level     =     2
    Cache Type      =     LOW
    Print Level     =     1
    Num. of threads =     1
    # Amps to Print =     1000000
    Print MP2 Amps? =     No
    Analyze T2 Amps =     No
    Print Pair Ener =     No
    Local CC        =     No
    SCS-MP2         =     False
    SCSN-MP2        =     False
    SCS-CCSD        =     False

MP2 correlation energy -0.0368265973950109
                Solving CC Amplitude Equations
                ------------------------------
  Iter             Energy              RMS        T1Diag      D1Diag    New D1Diag    D2Diag
  ----     ---------------------    ---------   ----------  ----------  ----------   --------
     0        -0.036826597395011    0.000e+00    0.000000    0.000000    0.000000    0.221648
     1        -0.054113431426045    1.178e-01    0.019153    0.038306    0.038306    0.327874
     2        -0.070064085375636    6.605e-02    0.038446    0.076891    0.076891    0.435090
     3        -0.070806576479807    2.487e-02    0.049745    0.099487    0.099487    0.445903
     4        -0.071316166000407    2.028e-02    0.074133    0.148263    0.148263    0.471549
     5        -0.073278280776350    7.554e-03    0.086789    0.173575    0.173575    0.494532
     6        -0.072509546016148    4.090e-03    0.080970    0.161936    0.161936    0.485005
     7        -0.072729033871561    1.516e-03    0.082503    0.165001    0.165001    0.487527
     8        -0.072709605490533    1.020e-04    0.082405    0.164806    0.164806    0.487323
     9        -0.072707831504789    8.775e-06    0.082396    0.164788    0.164788    0.487305
    10        -0.072707890509048    6.135e-07    0.082396    0.164789    0.164789    0.487306
    11        -0.072707892077576    8.931e-08    0.082396    0.164789    0.164789    0.487306

    Iterations converged.


    Largest TIA Amplitudes:
              1   0        -0.1611639209
              1   3         0.0343735348
              0   3         0.0011611912
              0   0         0.0000687872

    Largest TIjAb Amplitudes:
      1   1   0   0        -0.2789980184
      1   1   0   3        -0.2356156718
      1   1   3   0        -0.2356156718
      1   1   3   3        -0.2193906336
      1   1   1   1        -0.0143932135
      1   1   2   2        -0.0143932135
      0   1   1   1         0.0038502876
      0   1   2   2         0.0038502876
      1   0   1   1         0.0038502876
      1   0   2   2         0.0038502876
      0   1   3   0        -0.0030521516
      1   0   0   3        -0.0030521516
      0   0   0   0        -0.0027732795
      0   1   0   3        -0.0023297965
      1   0   3   0        -0.0023297965
      0   1   3   3         0.0018780516
      1   0   3   3         0.0018780516
      0   0   1   1        -0.0018574909
      0   0   2   2        -0.0018574909
      0   0   3   3        -0.0013862395
      0   1   0   0        -0.0004615449
      1   0   0   0        -0.0004615449
      0   0   0   3         0.0001341403
      0   0   3   0         0.0001341403

    SCF energy       (wfn)                    =   -7.733991339980124
    Reference energy (file100)                =   -7.733991340008576

    Opposite-spin MP2 correlation energy      =   -0.036823827222648
    Same-spin MP2 correlation energy          =   -0.000002770172363
    MP2 correlation energy                    =   -0.036826597395011
      * MP2 total energy                      =   -7.770817937403588

    Opposite-spin CCSD correlation energy     =   -0.072711542613014
    Same-spin CCSD correlation energy         =    0.000003650535439
    CCSD correlation energy                   =   -0.072707892077576
      * CCSD total energy                     =   -7.806699232086152


    Psi4 stopped on: Friday, 31 May 2019 03:10PM
    Psi4 wall time for execution: 0:00:02.76

*** Psi4 exiting successfully. Buy a developer a beer!
