
    -----------------------------------------------------------------------
          Psi4: An Open-Source Ab Initio Electronic Structure Package
                               Psi4 1.3.2 release

                         Git: Rev {HEAD} ecbda83 


    R. M. Parrish, L. A. Burns, D. G. A. Smith, A. C. Simmonett,
    A. E. DePrince III, E. G. Hohenstein, U. Bozkaya, A. Yu. Sokolov,
    R. Di Remigio, R. M. Richard, J. F. Gonthier, A. M. James,
    H. R. McAlexander, A. Kumar, M. Saitow, X. Wang, B. P. Pritchard,
    P. Verma, H. F. Schaefer III, K. Patkowski, R. A. King, E. F. Valeev,
    F. A. Evangelista, J. M. Turney, T. D. Crawford, and C. D. Sherrill,
    J. Chem. Theory Comput. 13(7) pp 3185--3197 (2017).
    (doi: 10.1021/acs.jctc.7b00174)


                         Additional Contributions by
    P. Kraus, H. Kruse, M. H. Lechner, M. C. Schieber, R. A. Shaw,
    A. Alenaizan, R. Galvelis, Z. L. Glick, S. Lehtola, and J. P. Misiewicz

    -----------------------------------------------------------------------


    Psi4 started on: Monday, 03 June 2019 08:42PM

    Process ID: 32162
    Host:       DN0a1fe779.SUNet
    PSIDATADIR: /anaconda3/share/psi4
    Memory:     500.0 MiB
    Threads:    1
    
  ==> Input File <==

--------------------------------------------------------------------------
"""This is a template for psi4 input format."""
import numpy
import sys

from openfermion.config import *
from openfermion.hamiltonians import MolecularData
from openfermion.ops import general_basis_change

from numpy import array

sys.path.append('/anaconda3/lib/python3.6/site-packages/openfermionpsi4')
from _psi4_conversion_functions import *


# Set memory that job can use in megabytes.
memory 8000 mb

# Initialize molecular data.
_description = '2.40'
if _description == 'None':
    _description = None
molecule = MolecularData([['Be', [0, 0, 0]], ['H', [0, 0, 2.4000000000000004]], ['H', [0, 0, -2.4000000000000004]]],
                         'sto-3g',
                         1,
                         0,
                         _description,
                          filename='/anaconda3/lib/python3.6/site-packages/openfermion/data/H2-Be1_sto-3g_singlet_2.40')

# Set molecular geometry and symmetry.
molecule mol {
Be 0 0 0
H 0 0 2.4000000000000004
H 0 0 -2.4000000000000004
symmetry c1
}
mol.set_multiplicity(1)
mol.set_molecular_charge(0)

# Set reference and guess.
if molecule.multiplicity == 1:
    set reference rhf
    set guess sad
else:
    set reference rohf
    set guess gwh

# Set global parameters of calculation.
set globals {
    basis sto-3g
    freeze_core false
    fail_on_maxiter False
    df_scf_guess false
    opdm true
    tpdm true
    soscf false
    scf_type pk
    maxiter 1e6
    num_amps_print 1e6
    r_convergence 1e-6
    d_convergence 1e-6
    e_convergence 1e-6
    ints_tolerance EQUALITY_TOLERANCE
    damping_percentage 0
}

# Run self-consistent field (SCF) calculation.
if 1:
    try:
        hf_energy, hf_wavefunction = energy('scf', return_wfn=True)
        if 1:
            print('Hartree-Fock energy for {} ({} electrons) is {}.'.format(
                molecule.name, molecule.n_electrons, hf_energy))
    except:
        if 1:
            print('WARNING: SCF calculation failed.')
        else:
            raise
    finally:
        # Get orbitals and Fock matrix.
        molecule.hf_energy = hf_energy
        molecule.nuclear_repulsion = mol.nuclear_repulsion_energy()
        molecule.canonical_orbitals = numpy.asarray(hf_wavefunction.Ca())
        molecule.overlap_integrals = numpy.asarray(hf_wavefunction.S())
        molecule.n_orbitals = molecule.canonical_orbitals.shape[0]
        molecule.n_qubits = 2 * molecule.n_orbitals
        molecule.orbital_energies = numpy.asarray(hf_wavefunction.epsilon_a())
        molecule.fock_matrix = numpy.asarray(hf_wavefunction.Fa())

        # Get integrals using MintsHelper.
        mints = MintsHelper(hf_wavefunction.basisset())
        molecule.one_body_integrals = general_basis_change(
            numpy.asarray(mints.ao_kinetic()), molecule.canonical_orbitals, (1, 0))
        molecule.one_body_integrals += general_basis_change(
            numpy.asarray(mints.ao_potential()), molecule.canonical_orbitals, (1, 0))
        two_body_integrals = numpy.asarray(mints.ao_eri())
        two_body_integrals.reshape((molecule.n_orbitals, molecule.n_orbitals,
                                    molecule.n_orbitals, molecule.n_orbitals))
        two_body_integrals = numpy.einsum('psqr', two_body_integrals)
        two_body_integrals = general_basis_change(
            two_body_integrals, molecule.canonical_orbitals, (1, 1, 0, 0))
        molecule.two_body_integrals = two_body_integrals
        molecule.save()


# Perform MP2 energy calculation if there are at least two electrons.
if 1:
    try:
        assert molecule.n_electrons > 1
        mp2_energy = energy('mp2')
        if 1:
            print('MP2 energy for {} ({} electrons) is {}.'.format(
                molecule.name, molecule.n_electrons, mp2_energy))
    except:
        if 1:
            print('WARNING: MP2 calculation failed.')
        else:
            raise
    else:
        molecule.mp2_energy = mp2_energy
        molecule.save()


# Perform configuration interaction singles and doubles (CISD) calculation.
if 1:
    set qc_module detci
    try:
        cisd_energy, cisd_wavefunction = energy('cisd', return_wfn=True)
        if 1:
            print('CISD energy for {} ({} electrons) is {}.'.format(
                molecule.name, molecule.n_electrons, cisd_energy))
    except:
        if 1:
            print('WARNING: CISD calculation failed.')
        else:
            raise
    else:
        # For the functions below, "a" and "b" refer to "up and "down" spins.
        molecule.cisd_energy = cisd_energy

        # Get 1-RDM from CISD calculation.
        cisd_one_rdm_a = numpy.array(cisd_wavefunction.get_opdm(
            0, 0, 'A', True)).reshape(molecule.n_orbitals, molecule.n_orbitals)
        cisd_one_rdm_b = numpy.array(cisd_wavefunction.get_opdm(
            0, 0, 'B', True)).reshape(molecule.n_orbitals, molecule.n_orbitals)

        # Get 2-RDM from CISD calculation.
        cisd_two_rdm_aa = numpy.array(cisd_wavefunction.get_tpdm(
            'AA', False)).reshape(molecule.n_orbitals, molecule.n_orbitals,
                                  molecule.n_orbitals, molecule.n_orbitals)
        cisd_two_rdm_ab = numpy.array(cisd_wavefunction.get_tpdm(
            'AB', False)).reshape(molecule.n_orbitals, molecule.n_orbitals,
                                  molecule.n_orbitals, molecule.n_orbitals)
        cisd_two_rdm_bb = numpy.array(cisd_wavefunction.get_tpdm(
            'BB', False)).reshape(molecule.n_orbitals, molecule.n_orbitals,
                                  molecule.n_orbitals, molecule.n_orbitals)

        # Get overall RDMs.
        cisd_one_rdm, cisd_two_rdm = unpack_spatial_rdm(
            cisd_one_rdm_a, cisd_one_rdm_b, cisd_two_rdm_aa,
            cisd_two_rdm_ab, cisd_two_rdm_bb)

        # Store 1-RDM in molecule file, 2-RDM separately in other file.
        molecule.cisd_one_rdm = cisd_one_rdm
        molecule.cisd_two_rdm = cisd_two_rdm
        molecule.save()


# Perform exact diagonalization.
if 1:
    set qc_module detci
    try:
        fci_energy, fci_wavefunction = energy('fci', return_wfn=True)
        if 1:
            print('FCI energy for {} ({} electrons) is {}.'.format(
                molecule.name, molecule.n_electrons, fci_energy))
    except:
        if 1:
            print('WARNING: FCI calculation failed.')
        else:
            raise
    finally:
        # For the functions below, "a" and "b" refer to "up and "down" spins.
        molecule.fci_energy = fci_energy

        # Get 1-RDM from FCI calculation.
        fci_one_rdm_a = numpy.array(fci_wavefunction.get_opdm(
            0, 0, 'A', True)).reshape(molecule.n_orbitals, molecule.n_orbitals)
        fci_one_rdm_b = numpy.array(fci_wavefunction.get_opdm(
            0, 0, 'B', True)).reshape(molecule.n_orbitals, molecule.n_orbitals)

        # Get 2-RDM from FCI calculation.
        fci_two_rdm_aa = numpy.array(fci_wavefunction.get_tpdm(
            'AA', False)).reshape(molecule.n_orbitals, molecule.n_orbitals,
                                  molecule.n_orbitals, molecule.n_orbitals)
        fci_two_rdm_ab = numpy.array(fci_wavefunction.get_tpdm(
            'AB', False)).reshape(molecule.n_orbitals, molecule.n_orbitals,
                                  molecule.n_orbitals, molecule.n_orbitals)
        fci_two_rdm_bb = numpy.array(fci_wavefunction.get_tpdm(
            'BB', False)).reshape(molecule.n_orbitals, molecule.n_orbitals,
                                  molecule.n_orbitals, molecule.n_orbitals)

        # Get overall RDMs.
        fci_one_rdm, fci_two_rdm = unpack_spatial_rdm(
            fci_one_rdm_a, fci_one_rdm_b,
            fci_two_rdm_aa, fci_two_rdm_ab, fci_two_rdm_bb)

        # Store 1-RDM in molecule file, 2-RDM separately in other file.
        molecule.fci_one_rdm = fci_one_rdm
        molecule.fci_two_rdm = fci_two_rdm
        molecule.save()


# Perform coupled cluster singles and doubles (CCSD) calculation.
if 1:
    set qc_module ccenergy
    try:
        ccsd_energy = energy('ccsd')
        if 1:
            print('CCSD energy for {} ({} electrons) is {}.'.format(
                molecule.name, molecule.n_electrons, ccsd_energy))
    except:
        if 1:
            print('WARNING: CCSD calculation failed.')
        else:
            raise
    else:
        molecule.ccsd_energy = ccsd_energy

        # Merge CC amplitudes into molecule by parsing
        psi_filename = outfile_name()
        single_cc_amplitudes, double_cc_amplitudes = (
            parse_psi4_ccsd_amplitudes(
                2 * molecule.n_orbitals,
                molecule.get_n_alpha_electrons(),
                molecule.get_n_beta_electrons(),
                psi_filename))

        molecule.ccsd_single_amps = single_cc_amplitudes
        molecule.ccsd_double_amps = double_cc_amplitudes
        molecule.save()
--------------------------------------------------------------------------

  Memory set to   7.451 GiB by Python driver.

*** tstart() called on DN0a1fe779.SUNet
*** at Mon Jun  3 20:42:43 2019

   => Loading Basis Set <=

    Name: STO-3G
    Role: ORBITAL
    Keyword: BASIS
    atoms 1   entry BE         line    41 file /anaconda3/share/psi4/basis/sto-3g.gbs 
    atoms 2-3 entry H          line    19 file /anaconda3/share/psi4/basis/sto-3g.gbs 


         ---------------------------------------------------------
                                   SCF
               by Justin Turney, Rob Parrish, Andy Simmonett
                          and Daniel G. A. Smith
                              RHF Reference
                        1 Threads,   7629 MiB Core
         ---------------------------------------------------------

  ==> Geometry <==

    Molecular point group: c1
    Full point group: D_inf_h

    Geometry (in Angstrom), charge = 0, multiplicity = 1:

       Center              X                  Y                   Z               Mass       
    ------------   -----------------  -----------------  -----------------  -----------------
         BE           0.000000000000     0.000000000000     0.000000000000     9.012183065000
         H            0.000000000000     0.000000000000     2.400000000000     1.007825032230
         H            0.000000000000     0.000000000000    -2.400000000000     1.007825032230

  Running in c1 symmetry.

  Rotational constants: A = ************  B =      1.45197  C =      1.45197 [cm^-1]
  Rotational constants: A = ************  B =  43529.08910  C =  43529.08910 [MHz]
  Nuclear repulsion =    1.874169287789583

  Charge       = 0
  Multiplicity = 1
  Electrons    = 6
  Nalpha       = 3
  Nbeta        = 3

  ==> Algorithm <==

  SCF Algorithm Type is PK.
  DIIS enabled.
  MOM disabled.
  Fractional occupation disabled.
  Guess Type is SAD.
  Energy threshold   = 1.00e-06
  Density threshold  = 1.00e-06
  Integral threshold = 0.00e+00

  ==> Primary Basis <==

  Basis Set: STO-3G
    Blend: STO-3G
    Number of shells: 5
    Number of basis function: 7
    Number of Cartesian functions: 7
    Spherical Harmonics?: true
    Max angular momentum: 1

  ==> Pre-Iterations <==

   -------------------------------------------------------
    Irrep   Nso     Nmo     Nalpha   Nbeta   Ndocc  Nsocc
   -------------------------------------------------------
     A          7       7       0       0       0       0
   -------------------------------------------------------
    Total       7       7       3       3       3       0
   -------------------------------------------------------

  ==> Integral Setup <==

  Using in-core PK algorithm.
   Calculation information:
      Number of atoms:                   3
      Number of AO shells:               5
      Number of primitives:             15
      Number of atomic orbitals:         7
      Number of basis functions:         7

      Integral cutoff                 1.00e-12
      Number of threads:                 1

  Performing in-core PK
  Using 812 doubles for integral storage.
  We computed 120 shell quartets total.
  Whereas there are 120 unique shell quartets.

  ==> DiskJK: Disk-Based J/K Matrices <==

    J tasked:                  Yes
    K tasked:                  Yes
    wK tasked:                  No
    Memory [MiB]:             5722
    Schwarz Cutoff:          1E-12

    OpenMP threads:              1

  Minimum eigenvalue in the overlap matrix is 6.7689718296E-01.
  Using Symmetric Orthogonalization.

  SCF Guess: Superposition of Atomic Densities via on-the-fly atomic UHF.

  ==> Iterations <==

                        Total Energy        Delta E     RMS |[F,P]|

   @RHF iter SAD:   -14.42511187653767   -1.44251e+01   0.00000e+00 
   @RHF iter   1:   -15.07093532006761   -6.45823e-01   3.75137e-02 DIIS
   @RHF iter   2:   -15.17878571328206   -1.07850e-01   1.63576e-02 DIIS
   @RHF iter   3:   -15.19822903458671   -1.94433e-02   9.65413e-04 DIIS
   @RHF iter   4:   -15.19835952918375   -1.30495e-04   2.07482e-04 DIIS
   @RHF iter   5:   -15.19836696429614   -7.43511e-06   2.97543e-06 DIIS
   @RHF iter   6:   -15.19836696479151   -4.95366e-10   2.21075e-07 DIIS
  Energy and wave function converged.


  ==> Post-Iterations <==

    Orbital Energies [Eh]
    ---------------------

    Doubly Occupied:                                                      

       1A     -4.562210     2A     -0.309919     3A     -0.238632  

    Virtual:                                                              

       4A      0.111902     5A      0.201147     6A      0.201147  
       7A      0.308200  

    Final Occupation by Irrep:
              A 
    DOCC [     3 ]

  @RHF Final Energy:   -15.19836696479151

   => Energetics <=

    Nuclear Repulsion Energy =              1.8741692877895832
    One-Electron Energy =                 -23.9235534189949846
    Two-Electron Energy =                   6.8510171664138930
    Total Energy =                        -15.1983669647915072

Computation Completed


Properties will be evaluated at   0.000000,   0.000000,   0.000000 [a0]

Properties computed using the SCF density matrix

  Nuclear Dipole Moment: [e a0]
     X:     0.0000      Y:     0.0000      Z:     0.0000

  Electronic Dipole Moment: [e a0]
     X:    -0.0000      Y:    -0.0000      Z:    -0.0000

  Dipole Moment: [e a0]
     X:    -0.0000      Y:    -0.0000      Z:    -0.0000     Total:     0.0000

  Dipole Moment: [D]
     X:    -0.0000      Y:    -0.0000      Z:    -0.0000     Total:     0.0000


*** tstop() called on DN0a1fe779.SUNet at Mon Jun  3 20:42:43 2019
Module time:
	user time   =       0.25 seconds =       0.00 minutes
	system time =       0.02 seconds =       0.00 minutes
	total time  =          0 seconds =       0.00 minutes
Total time:
	user time   =       0.25 seconds =       0.00 minutes
	system time =       0.02 seconds =       0.00 minutes
	total time  =          0 seconds =       0.00 minutes

*** tstart() called on DN0a1fe779.SUNet
*** at Mon Jun  3 20:42:43 2019

   => Loading Basis Set <=

    Name: STO-3G
    Role: ORBITAL
    Keyword: BASIS
    atoms 1   entry BE         line    41 file /anaconda3/share/psi4/basis/sto-3g.gbs 
    atoms 2-3 entry H          line    19 file /anaconda3/share/psi4/basis/sto-3g.gbs 


         ---------------------------------------------------------
                                   SCF
               by Justin Turney, Rob Parrish, Andy Simmonett
                          and Daniel G. A. Smith
                              RHF Reference
                        1 Threads,   7629 MiB Core
         ---------------------------------------------------------

  ==> Geometry <==

    Molecular point group: c1
    Full point group: D_inf_h

    Geometry (in Angstrom), charge = 0, multiplicity = 1:

       Center              X                  Y                   Z               Mass       
    ------------   -----------------  -----------------  -----------------  -----------------
         BE           0.000000000000     0.000000000000     0.000000000000     9.012183065000
         H            0.000000000000     0.000000000000     2.400000000000     1.007825032230
         H            0.000000000000     0.000000000000    -2.400000000000     1.007825032230

  Running in c1 symmetry.

  Rotational constants: A = ************  B =      1.45197  C =      1.45197 [cm^-1]
  Rotational constants: A = ************  B =  43529.08910  C =  43529.08910 [MHz]
  Nuclear repulsion =    1.874169287789583

  Charge       = 0
  Multiplicity = 1
  Electrons    = 6
  Nalpha       = 3
  Nbeta        = 3

  ==> Algorithm <==

  SCF Algorithm Type is PK.
  DIIS enabled.
  MOM disabled.
  Fractional occupation disabled.
  Guess Type is SAD.
  Energy threshold   = 1.00e-06
  Density threshold  = 1.00e-06
  Integral threshold = 0.00e+00

  ==> Primary Basis <==

  Basis Set: STO-3G
    Blend: STO-3G
    Number of shells: 5
    Number of basis function: 7
    Number of Cartesian functions: 7
    Spherical Harmonics?: true
    Max angular momentum: 1

  ==> Pre-Iterations <==

   -------------------------------------------------------
    Irrep   Nso     Nmo     Nalpha   Nbeta   Ndocc  Nsocc
   -------------------------------------------------------
     A          7       7       0       0       0       0
   -------------------------------------------------------
    Total       7       7       3       3       3       0
   -------------------------------------------------------

  ==> Integral Setup <==

  Using in-core PK algorithm.
   Calculation information:
      Number of atoms:                   3
      Number of AO shells:               5
      Number of primitives:             15
      Number of atomic orbitals:         7
      Number of basis functions:         7

      Integral cutoff                 1.00e-12
      Number of threads:                 1

  Performing in-core PK
  Using 812 doubles for integral storage.
  We computed 120 shell quartets total.
  Whereas there are 120 unique shell quartets.

  ==> DiskJK: Disk-Based J/K Matrices <==

    J tasked:                  Yes
    K tasked:                  Yes
    wK tasked:                  No
    Memory [MiB]:             5722
    Schwarz Cutoff:          1E-12

    OpenMP threads:              1

  Minimum eigenvalue in the overlap matrix is 6.7689718296E-01.
  Using Symmetric Orthogonalization.

  SCF Guess: Superposition of Atomic Densities via on-the-fly atomic UHF.

  ==> Iterations <==

                        Total Energy        Delta E     RMS |[F,P]|

   @RHF iter SAD:   -14.42511187653767   -1.44251e+01   0.00000e+00 
   @RHF iter   1:   -15.07093532006761   -6.45823e-01   3.75137e-02 DIIS
   @RHF iter   2:   -15.17878571328206   -1.07850e-01   1.63576e-02 DIIS
   @RHF iter   3:   -15.19822903458671   -1.94433e-02   9.65413e-04 DIIS
   @RHF iter   4:   -15.19835952918375   -1.30495e-04   2.07482e-04 DIIS
   @RHF iter   5:   -15.19836696429614   -7.43511e-06   2.97543e-06 DIIS
   @RHF iter   6:   -15.19836696479151   -4.95366e-10   2.21075e-07 DIIS
  Energy and wave function converged.


  ==> Post-Iterations <==

    Orbital Energies [Eh]
    ---------------------

    Doubly Occupied:                                                      

       1A     -4.562210     2A     -0.309919     3A     -0.238632  

    Virtual:                                                              

       4A      0.111902     5A      0.201147     6A      0.201147  
       7A      0.308200  

    Final Occupation by Irrep:
              A 
    DOCC [     3 ]

  @RHF Final Energy:   -15.19836696479151

   => Energetics <=

    Nuclear Repulsion Energy =              1.8741692877895832
    One-Electron Energy =                 -23.9235534189949846
    Two-Electron Energy =                   6.8510171664138930
    Total Energy =                        -15.1983669647915072

Computation Completed


Properties will be evaluated at   0.000000,   0.000000,   0.000000 [a0]

Properties computed using the SCF density matrix

  Nuclear Dipole Moment: [e a0]
     X:     0.0000      Y:     0.0000      Z:     0.0000

  Electronic Dipole Moment: [e a0]
     X:    -0.0000      Y:    -0.0000      Z:    -0.0000

  Dipole Moment: [e a0]
     X:    -0.0000      Y:    -0.0000      Z:    -0.0000     Total:     0.0000

  Dipole Moment: [D]
     X:    -0.0000      Y:    -0.0000      Z:    -0.0000     Total:     0.0000


*** tstop() called on DN0a1fe779.SUNet at Mon Jun  3 20:42:43 2019
Module time:
	user time   =       0.23 seconds =       0.00 minutes
	system time =       0.01 seconds =       0.00 minutes
	total time  =          0 seconds =       0.00 minutes
Total time:
	user time   =       0.51 seconds =       0.01 minutes
	system time =       0.03 seconds =       0.00 minutes
	total time  =          0 seconds =       0.00 minutes

*** tstart() called on DN0a1fe779.SUNet
*** at Mon Jun  3 20:42:43 2019


  //>>>>>>>>>>>>>>>>>>>>>>>>>>>>>>>>>>>//
  //               DFMP2               //
  //<<<<<<<<<<<<<<<<<<<<<<<<<<<<<<<<<<<//

   => Loading Basis Set <=

    Name: (STO-3G AUX)
    Role: RIFIT
    Keyword: DF_BASIS_MP2
    atoms 1   entry BE         line   146 file /anaconda3/share/psi4/basis/def2-qzvpp-ri.gbs 
    atoms 2-3 entry H          line    24 file /anaconda3/share/psi4/basis/def2-qzvpp-ri.gbs 

	 --------------------------------------------------------
	                          DF-MP2                         
	      2nd-Order Density-Fitted Moller-Plesset Theory     
	              RMP2 Wavefunction,   1 Threads             
	                                                         
	        Rob Parrish, Justin Turney, Andy Simmonett,      
	           Ed Hohenstein, and C. David Sherrill          
	 --------------------------------------------------------

   => Auxiliary Basis Set <=

  Basis Set: (STO-3G AUX)
    Blend: DEF2-QZVPP-RI
    Number of shells: 59
    Number of basis function: 213
    Number of Cartesian functions: 272
    Spherical Harmonics?: true
    Max angular momentum: 4

	 --------------------------------------------------------
	                 NBF =     7, NAUX =   213
	 --------------------------------------------------------
	   CLASS    FOCC     OCC    AOCC    AVIR     VIR    FVIR
	   PAIRS       0       3       3       4       4       0
	 --------------------------------------------------------

	-----------------------------------------------------------
	 ==================> DF-MP2 Energies <==================== 
	-----------------------------------------------------------
	 Reference Energy          =     -15.1983669647915072 [Eh]
	 Singles Energy            =      -0.0000000000000000 [Eh]
	 Same-Spin Energy          =      -0.0016310227557539 [Eh]
	 Opposite-Spin Energy      =      -0.0807105629915328 [Eh]
	 Correlation Energy        =      -0.0823415857472867 [Eh]
	 Total Energy              =     -15.2807085505387938 [Eh]
	-----------------------------------------------------------
	 ================> DF-SCS-MP2 Energies <================== 
	-----------------------------------------------------------
	 SCS Same-Spin Scale       =       0.3333333333333333 [-]
	 SCS Opposite-Spin Scale   =       1.2000000000000000 [-]
	 SCS Same-Spin Energy      =      -0.0005436742519180 [Eh]
	 SCS Opposite-Spin Energy  =      -0.0968526755898394 [Eh]
	 SCS Correlation Energy    =      -0.0973963498417574 [Eh]
	 SCS Total Energy          =     -15.2957633146332643 [Eh]
	-----------------------------------------------------------


*** tstop() called on DN0a1fe779.SUNet at Mon Jun  3 20:42:43 2019
Module time:
	user time   =       0.11 seconds =       0.00 minutes
	system time =       0.01 seconds =       0.00 minutes
	total time  =          0 seconds =       0.00 minutes
Total time:
	user time   =       0.62 seconds =       0.01 minutes
	system time =       0.04 seconds =       0.00 minutes
	total time  =          0 seconds =       0.00 minutes

*** tstart() called on DN0a1fe779.SUNet
*** at Mon Jun  3 20:42:43 2019

   => Loading Basis Set <=

    Name: STO-3G
    Role: ORBITAL
    Keyword: BASIS
    atoms 1   entry BE         line    41 file /anaconda3/share/psi4/basis/sto-3g.gbs 
    atoms 2-3 entry H          line    19 file /anaconda3/share/psi4/basis/sto-3g.gbs 


         ---------------------------------------------------------
                                   SCF
               by Justin Turney, Rob Parrish, Andy Simmonett
                          and Daniel G. A. Smith
                              RHF Reference
                        1 Threads,   7629 MiB Core
         ---------------------------------------------------------

  ==> Geometry <==

    Molecular point group: c1
    Full point group: D_inf_h

    Geometry (in Angstrom), charge = 0, multiplicity = 1:

       Center              X                  Y                   Z               Mass       
    ------------   -----------------  -----------------  -----------------  -----------------
         BE           0.000000000000     0.000000000000     0.000000000000     9.012183065000
         H            0.000000000000     0.000000000000     2.400000000000     1.007825032230
         H            0.000000000000     0.000000000000    -2.400000000000     1.007825032230

  Running in c1 symmetry.

  Rotational constants: A = ************  B =      1.45197  C =      1.45197 [cm^-1]
  Rotational constants: A = ************  B =  43529.08910  C =  43529.08910 [MHz]
  Nuclear repulsion =    1.874169287789583

  Charge       = 0
  Multiplicity = 1
  Electrons    = 6
  Nalpha       = 3
  Nbeta        = 3

  ==> Algorithm <==

  SCF Algorithm Type is PK.
  DIIS enabled.
  MOM disabled.
  Fractional occupation disabled.
  Guess Type is SAD.
  Energy threshold   = 1.00e-06
  Density threshold  = 1.00e-06
  Integral threshold = 0.00e+00

  ==> Primary Basis <==

  Basis Set: STO-3G
    Blend: STO-3G
    Number of shells: 5
    Number of basis function: 7
    Number of Cartesian functions: 7
    Spherical Harmonics?: true
    Max angular momentum: 1

  ==> Pre-Iterations <==

   -------------------------------------------------------
    Irrep   Nso     Nmo     Nalpha   Nbeta   Ndocc  Nsocc
   -------------------------------------------------------
     A          7       7       0       0       0       0
   -------------------------------------------------------
    Total       7       7       3       3       3       0
   -------------------------------------------------------

  ==> Integral Setup <==

  Using in-core PK algorithm.
   Calculation information:
      Number of atoms:                   3
      Number of AO shells:               5
      Number of primitives:             15
      Number of atomic orbitals:         7
      Number of basis functions:         7

      Integral cutoff                 1.00e-12
      Number of threads:                 1

  Performing in-core PK
  Using 812 doubles for integral storage.
  We computed 120 shell quartets total.
  Whereas there are 120 unique shell quartets.

  ==> DiskJK: Disk-Based J/K Matrices <==

    J tasked:                  Yes
    K tasked:                  Yes
    wK tasked:                  No
    Memory [MiB]:             5722
    Schwarz Cutoff:          1E-12

    OpenMP threads:              1

  Minimum eigenvalue in the overlap matrix is 6.7689718296E-01.
  Using Symmetric Orthogonalization.

  SCF Guess: Superposition of Atomic Densities via on-the-fly atomic UHF.

  ==> Iterations <==

                        Total Energy        Delta E     RMS |[F,P]|

   @RHF iter SAD:   -14.42511187653767   -1.44251e+01   0.00000e+00 
   @RHF iter   1:   -15.07093532006761   -6.45823e-01   3.75137e-02 DIIS
   @RHF iter   2:   -15.17878571328206   -1.07850e-01   1.63576e-02 DIIS
   @RHF iter   3:   -15.19822903458671   -1.94433e-02   9.65413e-04 DIIS
   @RHF iter   4:   -15.19835952918375   -1.30495e-04   2.07482e-04 DIIS
   @RHF iter   5:   -15.19836696429614   -7.43511e-06   2.97543e-06 DIIS
   @RHF iter   6:   -15.19836696479151   -4.95366e-10   2.21075e-07 DIIS
  Energy and wave function converged.


  ==> Post-Iterations <==

    Orbital Energies [Eh]
    ---------------------

    Doubly Occupied:                                                      

       1A     -4.562210     2A     -0.309919     3A     -0.238632  

    Virtual:                                                              

       4A      0.111902     5A      0.201147     6A      0.201147  
       7A      0.308200  

    Final Occupation by Irrep:
              A 
    DOCC [     3 ]

  @RHF Final Energy:   -15.19836696479151

   => Energetics <=

    Nuclear Repulsion Energy =              1.8741692877895832
    One-Electron Energy =                 -23.9235534189949846
    Two-Electron Energy =                   6.8510171664138930
    Total Energy =                        -15.1983669647915072

Computation Completed


Properties will be evaluated at   0.000000,   0.000000,   0.000000 [a0]

Properties computed using the SCF density matrix

  Nuclear Dipole Moment: [e a0]
     X:     0.0000      Y:     0.0000      Z:     0.0000

  Electronic Dipole Moment: [e a0]
     X:    -0.0000      Y:    -0.0000      Z:    -0.0000

  Dipole Moment: [e a0]
     X:    -0.0000      Y:    -0.0000      Z:    -0.0000     Total:     0.0000

  Dipole Moment: [D]
     X:    -0.0000      Y:    -0.0000      Z:    -0.0000     Total:     0.0000


*** tstop() called on DN0a1fe779.SUNet at Mon Jun  3 20:42:44 2019
Module time:
	user time   =       0.22 seconds =       0.00 minutes
	system time =       0.02 seconds =       0.00 minutes
	total time  =          1 seconds =       0.02 minutes
Total time:
	user time   =       0.87 seconds =       0.01 minutes
	system time =       0.06 seconds =       0.00 minutes
	total time  =          1 seconds =       0.02 minutes
 MINTS: Wrapper to libmints.
   by Justin Turney

   Calculation information:
      Number of threads:                 1
      Number of atoms:                   3
      Number of AO shells:               5
      Number of SO shells:               5
      Number of primitives:             15
      Number of atomic orbitals:         7
      Number of basis functions:         7

      Number of irreps:                  1
      Integral cutoff                 0.00e+00
      Number of functions per irrep: [   7 ]

 OEINTS: Overlap, kinetic, potential, dipole, and quadrupole integrals
         stored in file 35.

      Computing two-electron integrals...done
      Computed 168 non-zero two-electron integrals.
        Stored in file 33.


         ---------------------------------------------------------
                          Configuration Interaction
                            (a 'D E T C I' module)

                 C. David Sherrill, Daniel G. A. Smith, and
                              Matt L. Leininger
         ---------------------------------------------------------


   ==> Parameters <==

    EX LEVEL       =        2      H0 BLOCKSIZE  =     1000
    VAL EX LEVEL   =        0      H0 GUESS SIZE =     1000
    H0COUPLINGSIZE =        0      H0 COUPLING   =       NO
    MAXITER        =       24      NUM PRINT     =       20
    NUM ROOTS      =        1      ICORE         =        1
    PRINT LVL      =        1      FCI           =       NO
    R CONV         = 1.00e-06      MIXED         =      YES
    E CONV         = 1.00e-06      MIXED4        =      YES
    R4S            =       NO      REPL OTF      =       NO
    DIAG METHOD    =      SEM      FOLLOW ROOT   =        0
    PRECONDITIONER = DAVIDSON      UPDATE        = DAVIDSON
    S              =   0.0000      Ms0           =      YES
    GUESS VECTOR   =  H0BLOCK      OPENTYPE      =     NONE
    COLLAPSE SIZE  =        1      HD AVG        = EVANGELISTI
    MAX NUM VECS   =       25      REF SYM       =     AUTO
    IOPEN        =       NO

    EX ALLOW       =  1  1 
    STATE AVERAGE  =  0(1.00) 

   ==> CI Orbital and Space information <==

    RAS1 LVL      =        2      A RAS3 MAX    =        2
    RAS1 MIN      =        4      B RAS3 MAX    =        2
    A RAS1 LVL    =        2      RAS4 LVL      =        7
    A RAS1 MIN    =        1      A RAS4 MAX    =        0
    A RAS1 MAX    =        3      B RAS4 MAX    =        0
    B RAS1 LVL    =        2      RAS4 MAX      =        0
    B RAS1 MIN    =        1      A RAS34 MAX   =        2
    B RAS1 MAX    =        3      B RAS34 MAX   =        2
    RAS3 LVL      =        3      RAS34 MAX     =        2
    RAS3 MAX      =        2
   ------------------------------------
               Space    Total     A
   ------------------------------------
                 Nso        7     7
                 Nmo        7     7
               Ndocc        3     3
               Nsocc        0     0
   ------------------------------------
              CI Spaces
   ------------------------------------
        Dropped DOCC        0     0
                RAS1        3     3
                RAS2        0     0
                RAS3        4     4
                RAS4        0     0
      Active (total)        7     7
        Dropped UOCC        0     0
   ------------------------------------

   ==> Setting up CI strings <==

    There are 31 alpha and 31 beta strings
    The CI space requires 205 (2.05E+02) determinants and 6 blocks

   ==> Transforming CI integrals <==

	Presorting SO-basis two-electron integrals.
	Sorting File: SO Ints (nn|nn) nbuckets = 1
	Transforming the one-electron integrals and constructing Fock matrices
	Starting first half-transformation.
	Sorting half-transformed integrals.
	First half integral transformation complete.
	Starting second half-transformation.
	Two-electron integral transformation complete.

   ==> Starting CI iterations <==

    H0 Block Eigenvalue = -15.34153001

    Simultaneous Expansion Method (Block Davidson Method)
    Using 1 initial trial vectors

     Iter   Root       Total Energy       Delta E      C RMS

   @CI  0:     0    -15.341530008480   -1.7216E+01   2.6474E-14  
    Warning: Norm of correction (root 0) is < 1.0E-13
   @CI  1:     0    -15.341530008480   0.0000E+00   5.8795E-14 c

   ==> Energetics <==

    SCF energy =          -15.198366964791507
    Total CI energy =     -15.341530008480371

   ==> CISD root 0 information <==

    CISD Root 0 energy =   -15.341530008480371

   The 20 most important determinants:

    *   1   -0.844383  (    0,    0)  1AX 2AX 3AX 
    *   2    0.412751  (    1,    1)  1AX 2AX 4AX 
    *   3   -0.159745  (    2,   10)  1AX 2AB 3AA 4AA 7AB 
    *   4   -0.159745  (   10,    2)  1AX 2AA 3AB 4AB 7AA 
    *   5    0.104995  (   11,   11)  1AX 3AX 7AX 
    *   6   -0.093115  (    1,   11)  1AX 2AA 3AB 4AA 7AB 
    *   7   -0.093115  (   11,    1)  1AX 2AB 3AA 4AB 7AA 
    *   8    0.076240  (    0,    2)  1AX 2AA 3AX 4AB 
    *   9    0.076240  (    2,    0)  1AX 2AB 3AX 4AA 
    *  10    0.066631  (    0,   22)  1AX 2AA 3AA 4AB 7AB 
    *  11    0.066631  (   22,    0)  1AX 2AB 3AB 4AA 7AA 
    *  12    0.066495  (    8,    8)  1AX 3AX 6AX 
    *  13    0.066495  (    5,    5)  1AX 3AX 5AX 
    *  14    0.042134  (    2,    2)  1AX 3AX 4AX 
    *  15    0.041307  (   10,   10)  1AX 2AX 7AX 
    *  16    0.039825  (    0,   10)  1AX 2AX 3AA 7AB 
    *  17    0.039825  (   10,    0)  1AX 2AX 3AB 7AA 
    *  18   -0.024514  (    4,    4)  1AX 2AX 5AX 
    *  19   -0.024514  (    7,    7)  1AX 2AX 6AX 
    *  20    0.002840  (    8,    9)  1AA 2AB 3AX 6AX 

		 "A good bug is a dead bug" 

			 - Starship Troopers

		 "I didn't write FORTRAN.  That's the problem."

			 - Edward Valeev

*** tstart() called on DN0a1fe779.SUNet
*** at Mon Jun  3 20:42:44 2019

   => Loading Basis Set <=

    Name: STO-3G
    Role: ORBITAL
    Keyword: BASIS
    atoms 1   entry BE         line    41 file /anaconda3/share/psi4/basis/sto-3g.gbs 
    atoms 2-3 entry H          line    19 file /anaconda3/share/psi4/basis/sto-3g.gbs 


         ---------------------------------------------------------
                                   SCF
               by Justin Turney, Rob Parrish, Andy Simmonett
                          and Daniel G. A. Smith
                              RHF Reference
                        1 Threads,   7629 MiB Core
         ---------------------------------------------------------

  ==> Geometry <==

    Molecular point group: c1
    Full point group: D_inf_h

    Geometry (in Angstrom), charge = 0, multiplicity = 1:

       Center              X                  Y                   Z               Mass       
    ------------   -----------------  -----------------  -----------------  -----------------
         BE           0.000000000000     0.000000000000     0.000000000000     9.012183065000
         H            0.000000000000     0.000000000000     2.400000000000     1.007825032230
         H            0.000000000000     0.000000000000    -2.400000000000     1.007825032230

  Running in c1 symmetry.

  Rotational constants: A = ************  B =      1.45197  C =      1.45197 [cm^-1]
  Rotational constants: A = ************  B =  43529.08910  C =  43529.08910 [MHz]
  Nuclear repulsion =    1.874169287789583

  Charge       = 0
  Multiplicity = 1
  Electrons    = 6
  Nalpha       = 3
  Nbeta        = 3

  ==> Algorithm <==

  SCF Algorithm Type is PK.
  DIIS enabled.
  MOM disabled.
  Fractional occupation disabled.
  Guess Type is SAD.
  Energy threshold   = 1.00e-06
  Density threshold  = 1.00e-06
  Integral threshold = 0.00e+00

  ==> Primary Basis <==

  Basis Set: STO-3G
    Blend: STO-3G
    Number of shells: 5
    Number of basis function: 7
    Number of Cartesian functions: 7
    Spherical Harmonics?: true
    Max angular momentum: 1

  ==> Pre-Iterations <==

   -------------------------------------------------------
    Irrep   Nso     Nmo     Nalpha   Nbeta   Ndocc  Nsocc
   -------------------------------------------------------
     A          7       7       0       0       0       0
   -------------------------------------------------------
    Total       7       7       3       3       3       0
   -------------------------------------------------------

  ==> Integral Setup <==

  Using in-core PK algorithm.
   Calculation information:
      Number of atoms:                   3
      Number of AO shells:               5
      Number of primitives:             15
      Number of atomic orbitals:         7
      Number of basis functions:         7

      Integral cutoff                 1.00e-12
      Number of threads:                 1

  Performing in-core PK
  Using 812 doubles for integral storage.
  We computed 120 shell quartets total.
  Whereas there are 120 unique shell quartets.

  ==> DiskJK: Disk-Based J/K Matrices <==

    J tasked:                  Yes
    K tasked:                  Yes
    wK tasked:                  No
    Memory [MiB]:             5722
    Schwarz Cutoff:          1E-12

    OpenMP threads:              1

  Minimum eigenvalue in the overlap matrix is 6.7689718296E-01.
  Using Symmetric Orthogonalization.

  SCF Guess: Superposition of Atomic Densities via on-the-fly atomic UHF.

  ==> Iterations <==

                        Total Energy        Delta E     RMS |[F,P]|

   @RHF iter SAD:   -14.42511187653767   -1.44251e+01   0.00000e+00 
   @RHF iter   1:   -15.07093532006761   -6.45823e-01   3.75137e-02 DIIS
   @RHF iter   2:   -15.17878571328206   -1.07850e-01   1.63576e-02 DIIS
   @RHF iter   3:   -15.19822903458671   -1.94433e-02   9.65413e-04 DIIS
   @RHF iter   4:   -15.19835952918375   -1.30495e-04   2.07482e-04 DIIS
   @RHF iter   5:   -15.19836696429614   -7.43511e-06   2.97543e-06 DIIS
   @RHF iter   6:   -15.19836696479151   -4.95366e-10   2.21075e-07 DIIS
  Energy and wave function converged.


  ==> Post-Iterations <==

    Orbital Energies [Eh]
    ---------------------

    Doubly Occupied:                                                      

       1A     -4.562210     2A     -0.309919     3A     -0.238632  

    Virtual:                                                              

       4A      0.111902     5A      0.201147     6A      0.201147  
       7A      0.308200  

    Final Occupation by Irrep:
              A 
    DOCC [     3 ]

  @RHF Final Energy:   -15.19836696479151

   => Energetics <=

    Nuclear Repulsion Energy =              1.8741692877895832
    One-Electron Energy =                 -23.9235534189949846
    Two-Electron Energy =                   6.8510171664138930
    Total Energy =                        -15.1983669647915072

Computation Completed


Properties will be evaluated at   0.000000,   0.000000,   0.000000 [a0]

Properties computed using the SCF density matrix

  Nuclear Dipole Moment: [e a0]
     X:     0.0000      Y:     0.0000      Z:     0.0000

  Electronic Dipole Moment: [e a0]
     X:    -0.0000      Y:    -0.0000      Z:    -0.0000

  Dipole Moment: [e a0]
     X:    -0.0000      Y:    -0.0000      Z:    -0.0000     Total:     0.0000

  Dipole Moment: [D]
     X:    -0.0000      Y:    -0.0000      Z:    -0.0000     Total:     0.0000


*** tstop() called on DN0a1fe779.SUNet at Mon Jun  3 20:42:44 2019
Module time:
	user time   =       0.22 seconds =       0.00 minutes
	system time =       0.02 seconds =       0.00 minutes
	total time  =          0 seconds =       0.00 minutes
Total time:
	user time   =       1.16 seconds =       0.02 minutes
	system time =       0.10 seconds =       0.00 minutes
	total time  =          1 seconds =       0.02 minutes
 MINTS: Wrapper to libmints.
   by Justin Turney

   Calculation information:
      Number of threads:                 1
      Number of atoms:                   3
      Number of AO shells:               5
      Number of SO shells:               5
      Number of primitives:             15
      Number of atomic orbitals:         7
      Number of basis functions:         7

      Number of irreps:                  1
      Integral cutoff                 0.00e+00
      Number of functions per irrep: [   7 ]

 OEINTS: Overlap, kinetic, potential, dipole, and quadrupole integrals
         stored in file 35.

      Computing two-electron integrals...done
      Computed 168 non-zero two-electron integrals.
        Stored in file 33.


         ---------------------------------------------------------
                          Configuration Interaction
                            (a 'D E T C I' module)

                 C. David Sherrill, Daniel G. A. Smith, and
                              Matt L. Leininger
         ---------------------------------------------------------


   ==> Parameters <==

    EX LEVEL       =        6      H0 BLOCKSIZE  =     1000
    VAL EX LEVEL   =        0      H0 GUESS SIZE =     1000
    H0COUPLINGSIZE =        0      H0 COUPLING   =       NO
    MAXITER        =       24      NUM PRINT     =       20
    NUM ROOTS      =        1      ICORE         =        1
    PRINT LVL      =        1      FCI           =      YES
    R CONV         = 1.00e-06      MIXED         =      YES
    E CONV         = 1.00e-06      MIXED4        =      YES
    R4S            =       NO      REPL OTF      =       NO
    DIAG METHOD    =      SEM      FOLLOW ROOT   =        0
    PRECONDITIONER = DAVIDSON      UPDATE        = DAVIDSON
    S              =   0.0000      Ms0           =      YES
    GUESS VECTOR   =  H0BLOCK      OPENTYPE      =     NONE
    COLLAPSE SIZE  =        1      HD AVG        = EVANGELISTI
    MAX NUM VECS   =       25      REF SYM       =     AUTO
    IOPEN        =       NO

    EX ALLOW       =  1  1  1  1  1  1 
    STATE AVERAGE  =  0(1.00) 

   ==> CI Orbital and Space information <==

   ------------------------------------
               Space    Total     A
   ------------------------------------
                 Nso        7     7
                 Nmo        7     7
               Ndocc        3     3
               Nsocc        0     0
   ------------------------------------
              CI Spaces
   ------------------------------------
        Dropped DOCC        0     0
              Active        7     7
        Dropped UOCC        0     0
   ------------------------------------

   ==> Setting up CI strings <==

    There are 35 alpha and 35 beta strings
    The CI space requires 1225 (1.22E+03) determinants and 1 blocks

   ==> Transforming CI integrals <==

	Presorting SO-basis two-electron integrals.
	Sorting File: SO Ints (nn|nn) nbuckets = 1
	Transforming the one-electron integrals and constructing Fock matrices
	Starting first half-transformation.
	Sorting half-transformed integrals.
	First half integral transformation complete.
	Starting second half-transformation.
	Two-electron integral transformation complete.

   ==> Starting CI iterations <==

    H0 Block Eigenvalue = -15.36286592

    Simultaneous Expansion Method (Block Davidson Method)
    Using 1 initial trial vectors

     Iter   Root       Total Energy       Delta E      C RMS

   @CI  0:     0    -15.362865919333   -1.7237E+01   9.3815E-03  
   @CI  1:     0    -15.362874288300   -8.3690E-06   4.8481E-04  
   @CI  2:     0    -15.362874312120   -2.3820E-08   4.5979E-05  
   @CI  3:     0    -15.362874312546   -4.2578E-10   1.0734E-05  
   @CI  4:     0    -15.362874312604   -5.7799E-11   5.4839E-06  
   @CI  5:     0    -15.362874312616   -1.1759E-11   2.7690E-06  
   @CI  6:     0    -15.362874312618   -2.2702E-12   1.1244E-06  
   @CI  7:     0    -15.362874312619   -1.3465E-12   1.4224E-06  
   @CI  8:     0    -15.362874312620   -4.6541E-13   3.2289E-07 c

   ==> Energetics <==

    SCF energy =          -15.198366964791507
    Total CI energy =     -15.362874312619587

   ==> FCI root 0 information <==

    FCI Root 0 energy =   -15.362874312619587

   The 20 most important determinants:

    *   1   -0.794192  (    0,    0)  1AX 2AX 3AX 
    *   2    0.443298  (    1,    1)  1AX 2AX 4AX 
    *   3   -0.170013  (    2,   20)  1AX 2AB 3AA 4AA 7AB 
    *   4   -0.170013  (   20,    2)  1AX 2AA 3AB 4AB 7AA 
    *   5   -0.100231  (    1,   21)  1AX 2AA 3AB 4AA 7AB 
    *   6   -0.100231  (   21,    1)  1AX 2AB 3AA 4AB 7AA 
    *   7    0.096865  (   21,   21)  1AX 3AX 7AX 
    *   8    0.094087  (    5,    5)  1AX 3AX 5AX 
    *   9    0.094087  (   11,   11)  1AX 3AX 6AX 
    *  10   -0.093267  (   23,   23)  1AX 4AX 7AX 
    *  11    0.089606  (    0,    2)  1AX 2AA 3AX 4AB 
    *  12    0.089606  (    2,    0)  1AX 2AB 3AX 4AA 
    *  13    0.069783  (    0,   23)  1AX 2AA 3AA 4AB 7AB 
    *  14    0.069783  (   23,    0)  1AX 2AB 3AB 4AA 7AA 
    *  15    0.048186  (    0,   20)  1AX 2AX 3AA 7AB 
    *  16    0.048186  (   20,    0)  1AX 2AX 3AB 7AA 
    *  17    0.046647  (   20,   20)  1AX 2AX 7AX 
    *  18   -0.045002  (    7,    7)  1AX 4AX 5AX 
    *  19   -0.045002  (   13,   13)  1AX 4AX 6AX 
    *  20    0.044379  (    4,    7)  1AX 2AA 4AB 5AX 

		 "A good bug is a dead bug" 

			 - Starship Troopers

		 "I didn't write FORTRAN.  That's the problem."

			 - Edward Valeev

*** tstart() called on DN0a1fe779.SUNet
*** at Mon Jun  3 20:42:45 2019

   => Loading Basis Set <=

    Name: STO-3G
    Role: ORBITAL
    Keyword: BASIS
    atoms 1   entry BE         line    41 file /anaconda3/share/psi4/basis/sto-3g.gbs 
    atoms 2-3 entry H          line    19 file /anaconda3/share/psi4/basis/sto-3g.gbs 


         ---------------------------------------------------------
                                   SCF
               by Justin Turney, Rob Parrish, Andy Simmonett
                          and Daniel G. A. Smith
                              RHF Reference
                        1 Threads,   7629 MiB Core
         ---------------------------------------------------------

  ==> Geometry <==

    Molecular point group: c1
    Full point group: D_inf_h

    Geometry (in Angstrom), charge = 0, multiplicity = 1:

       Center              X                  Y                   Z               Mass       
    ------------   -----------------  -----------------  -----------------  -----------------
         BE           0.000000000000     0.000000000000     0.000000000000     9.012183065000
         H            0.000000000000     0.000000000000     2.400000000000     1.007825032230
         H            0.000000000000     0.000000000000    -2.400000000000     1.007825032230

  Running in c1 symmetry.

  Rotational constants: A = ************  B =      1.45197  C =      1.45197 [cm^-1]
  Rotational constants: A = ************  B =  43529.08910  C =  43529.08910 [MHz]
  Nuclear repulsion =    1.874169287789583

  Charge       = 0
  Multiplicity = 1
  Electrons    = 6
  Nalpha       = 3
  Nbeta        = 3

  ==> Algorithm <==

  SCF Algorithm Type is PK.
  DIIS enabled.
  MOM disabled.
  Fractional occupation disabled.
  Guess Type is SAD.
  Energy threshold   = 1.00e-06
  Density threshold  = 1.00e-06
  Integral threshold = 0.00e+00

  ==> Primary Basis <==

  Basis Set: STO-3G
    Blend: STO-3G
    Number of shells: 5
    Number of basis function: 7
    Number of Cartesian functions: 7
    Spherical Harmonics?: true
    Max angular momentum: 1

  ==> Pre-Iterations <==

   -------------------------------------------------------
    Irrep   Nso     Nmo     Nalpha   Nbeta   Ndocc  Nsocc
   -------------------------------------------------------
     A          7       7       0       0       0       0
   -------------------------------------------------------
    Total       7       7       3       3       3       0
   -------------------------------------------------------

  ==> Integral Setup <==

  Using in-core PK algorithm.
   Calculation information:
      Number of atoms:                   3
      Number of AO shells:               5
      Number of primitives:             15
      Number of atomic orbitals:         7
      Number of basis functions:         7

      Integral cutoff                 1.00e-12
      Number of threads:                 1

  Performing in-core PK
  Using 812 doubles for integral storage.
  We computed 120 shell quartets total.
  Whereas there are 120 unique shell quartets.

  ==> DiskJK: Disk-Based J/K Matrices <==

    J tasked:                  Yes
    K tasked:                  Yes
    wK tasked:                  No
    Memory [MiB]:             5722
    Schwarz Cutoff:          1E-12

    OpenMP threads:              1

  Minimum eigenvalue in the overlap matrix is 6.7689718296E-01.
  Using Symmetric Orthogonalization.

  SCF Guess: Superposition of Atomic Densities via on-the-fly atomic UHF.

  ==> Iterations <==

                        Total Energy        Delta E     RMS |[F,P]|

   @RHF iter SAD:   -14.42511187653767   -1.44251e+01   0.00000e+00 
   @RHF iter   1:   -15.07093532006761   -6.45823e-01   3.75137e-02 DIIS
   @RHF iter   2:   -15.17878571328206   -1.07850e-01   1.63576e-02 DIIS
   @RHF iter   3:   -15.19822903458671   -1.94433e-02   9.65413e-04 DIIS
   @RHF iter   4:   -15.19835952918375   -1.30495e-04   2.07482e-04 DIIS
   @RHF iter   5:   -15.19836696429614   -7.43511e-06   2.97543e-06 DIIS
   @RHF iter   6:   -15.19836696479151   -4.95366e-10   2.21075e-07 DIIS
  Energy and wave function converged.


  ==> Post-Iterations <==

    Orbital Energies [Eh]
    ---------------------

    Doubly Occupied:                                                      

       1A     -4.562210     2A     -0.309919     3A     -0.238632  

    Virtual:                                                              

       4A      0.111902     5A      0.201147     6A      0.201147  
       7A      0.308200  

    Final Occupation by Irrep:
              A 
    DOCC [     3 ]

  @RHF Final Energy:   -15.19836696479151

   => Energetics <=

    Nuclear Repulsion Energy =              1.8741692877895832
    One-Electron Energy =                 -23.9235534189949846
    Two-Electron Energy =                   6.8510171664138930
    Total Energy =                        -15.1983669647915072

Computation Completed


Properties will be evaluated at   0.000000,   0.000000,   0.000000 [a0]

Properties computed using the SCF density matrix

  Nuclear Dipole Moment: [e a0]
     X:     0.0000      Y:     0.0000      Z:     0.0000

  Electronic Dipole Moment: [e a0]
     X:    -0.0000      Y:    -0.0000      Z:    -0.0000

  Dipole Moment: [e a0]
     X:    -0.0000      Y:    -0.0000      Z:    -0.0000     Total:     0.0000

  Dipole Moment: [D]
     X:    -0.0000      Y:    -0.0000      Z:    -0.0000     Total:     0.0000


*** tstop() called on DN0a1fe779.SUNet at Mon Jun  3 20:42:46 2019
Module time:
	user time   =       0.32 seconds =       0.01 minutes
	system time =       0.02 seconds =       0.00 minutes
	total time  =          1 seconds =       0.02 minutes
Total time:
	user time   =       2.23 seconds =       0.04 minutes
	system time =       0.18 seconds =       0.00 minutes
	total time  =          3 seconds =       0.05 minutes
 MINTS: Wrapper to libmints.
   by Justin Turney

   Calculation information:
      Number of threads:                 1
      Number of atoms:                   3
      Number of AO shells:               5
      Number of SO shells:               5
      Number of primitives:             15
      Number of atomic orbitals:         7
      Number of basis functions:         7

      Number of irreps:                  1
      Integral cutoff                 0.00e+00
      Number of functions per irrep: [   7 ]

 OEINTS: Overlap, kinetic, potential, dipole, and quadrupole integrals
         stored in file 35.

      Computing two-electron integrals...done
      Computed 168 non-zero two-electron integrals.
        Stored in file 33.


*** tstart() called on DN0a1fe779.SUNet
*** at Mon Jun  3 20:42:46 2019


	Wfn Parameters:
	--------------------
	Wavefunction         = CCSD
	Number of irreps     = 1
	Number of MOs        = 7
	Number of active MOs = 7
	AO-Basis             = NONE
	Semicanonical        = false
	Reference            = RHF
	Print Level          = 1

	IRREP	# MOs	# FZDC	# DOCC	# SOCC	# VIRT	# FZVR
	-----	-----	------	------	------	------	------
	 A	   7	    0	    3	    0	    4	    0
	Transforming integrals...
	IWL integrals will be deleted.
	(OO|OO)...
	Presorting SO-basis two-electron integrals.
	Sorting File: SO Ints (nn|nn) nbuckets = 1
	Transforming the one-electron integrals and constructing Fock matrices
	Starting first half-transformation.
	Sorting half-transformed integrals.
	First half integral transformation complete.
	Starting second half-transformation.
	Two-electron integral transformation complete.
	(OO|OV)...
	Starting second half-transformation.
	Two-electron integral transformation complete.
	(OO|VV)...
	Starting second half-transformation.
	Two-electron integral transformation complete.
	(OV|OO)...
	Starting first half-transformation.
	Sorting half-transformed integrals.
	First half integral transformation complete.
	Starting second half-transformation.
	Two-electron integral transformation complete.
	(OV|OV)...
	Starting second half-transformation.
	Two-electron integral transformation complete.
	(OV|VV)...
	Starting second half-transformation.
	Two-electron integral transformation complete.
	(VV|OO)...
	Starting first half-transformation.
	Sorting half-transformed integrals.
	First half integral transformation complete.
	Starting second half-transformation.
	Two-electron integral transformation complete.
	(VV|OV)...
	Starting second half-transformation.
	Two-electron integral transformation complete.
	(VV|VV)...
	Starting second half-transformation.
	Two-electron integral transformation complete.
	Frozen core energy     =      0.00000000000000

	Size of irrep 0 of <ab|cd> integrals:      0.000 (MW) /      0.002 (MB)
	Total:                                     0.000 (MW) /      0.002 (MB)

	Size of irrep 0 of <ia|bc> integrals:      0.000 (MW) /      0.002 (MB)
	Total:                                     0.000 (MW) /      0.002 (MB)

	Size of irrep 0 of tijab amplitudes:       0.000 (MW) /      0.001 (MB)
	Total:                                     0.000 (MW) /      0.001 (MB)

	Nuclear Rep. energy          =      1.87416928778958
	SCF energy                   =    -15.19836696479151
	One-electron energy          =    -23.92355130855137
	Two-electron energy          =      6.85101505596515
	Reference energy             =    -15.19836696479664

*** tstop() called on DN0a1fe779.SUNet at Mon Jun  3 20:42:46 2019
Module time:
	user time   =       0.01 seconds =       0.00 minutes
	system time =       0.06 seconds =       0.00 minutes
	total time  =          0 seconds =       0.00 minutes
Total time:
	user time   =       2.25 seconds =       0.04 minutes
	system time =       0.25 seconds =       0.00 minutes
	total time  =          3 seconds =       0.05 minutes
            **************************
            *                        *
            *        CCENERGY        *
            *                        *
            **************************

    Nuclear Rep. energy (wfn)     =    1.874169287789583
    SCF energy          (wfn)     =  -15.198366964791507
    Reference energy    (file100) =  -15.198366964796639

    Input parameters:
    -----------------
    Wave function   =     CCSD
    Reference wfn   =     RHF
    Brueckner       =     No
    Memory (Mbytes) =     8000.0
    Maxiter         =   1000000
    R_Convergence   =     1.0e-06
    E_Convergence   =     1.0e-06
    Restart         =     Yes
    DIIS            =     Yes
    AO Basis        =     NONE
    ABCD            =     NEW
    Cache Level     =     2
    Cache Type      =     LOW
    Print Level     =     1
    Num. of threads =     1
    # Amps to Print =     1000000
    Print MP2 Amps? =     No
    Analyze T2 Amps =     No
    Print Pair Ener =     No
    Local CC        =     No
    SCS-MP2         =     False
    SCSN-MP2        =     False
    SCS-CCSD        =     False

MP2 correlation energy -0.0823428936573345
                Solving CC Amplitude Equations
                ------------------------------
  Iter             Energy              RMS        T1Diag      D1Diag    New D1Diag    D2Diag
  ----     ---------------------    ---------   ----------  ----------  ----------   --------
     0        -0.082342893657334    0.000e+00    0.000000    0.000000    0.000000    0.250099
     1        -0.119788806519107    1.551e-01    0.007603    0.018120    0.018120    0.374876
     2        -0.151360446892626    7.760e-02    0.013800    0.033685    0.033685    0.490221
     3        -0.149949212354915    2.302e-02    0.017572    0.042706    0.042706    0.489854
     4        -0.152581217797964    1.996e-02    0.024023    0.056630    0.056630    0.515285
     5        -0.156923645799829    1.239e-02    0.031639    0.072773    0.072773    0.547177
     6        -0.155793119949963    4.928e-03    0.033238    0.075708    0.075708    0.546536
     7        -0.156409924770730    2.408e-03    0.034852    0.079084    0.079084    0.552505
     8        -0.156712751947020    5.923e-04    0.035361    0.080177    0.080177    0.554688
     9        -0.156629484833873    2.078e-04    0.035185    0.079811    0.079811    0.553983
    10        -0.156634213840525    2.240e-05    0.035206    0.079856    0.079856    0.554048
    11        -0.156634861508534    1.934e-06    0.035206    0.079856    0.079856    0.554049
    12        -0.156634887078946    2.062e-07    0.035206    0.079856    0.079856    0.554049

    Iterations converged.


    Largest TIA Amplitudes:
              1   0         0.0798558120
              2   3        -0.0325569049
              0   0        -0.0002316420

    Largest TIjAb Amplitudes:
      2   2   0   0        -0.4884415939
      1   2   0   3        -0.2058402909
      2   1   3   0        -0.2058402909
      1   1   3   3        -0.1387089595
      1   2   3   0        -0.1329806293
      2   1   0   3        -0.1329806293
      1   1   0   0        -0.0913149446
      1   1   1   1        -0.0800435449
      1   1   2   2        -0.0800435449
      2   2   3   3        -0.0751108840
      2   2   1   1         0.0237903421
      2   2   2   2         0.0237903421
      0   1   1   1         0.0033918185
      0   1   2   2         0.0033918185
      1   0   1   1         0.0033918185
      1   0   2   2         0.0033918185
      0   1   3   3         0.0024733141
      1   0   3   3         0.0024733141
      0   0   1   1        -0.0014740078
      0   0   2   2        -0.0014740078
      0   0   0   0        -0.0011476513
      0   0   3   3        -0.0009912225
      0   1   0   0        -0.0009473282
      1   0   0   0        -0.0009473282
      0   2   3   0         0.0001091323
      2   0   0   3         0.0001091323
      0   2   0   3         0.0001056538
      2   0   3   0         0.0001056538

    SCF energy       (wfn)                    =  -15.198366964791507
    Reference energy (file100)                =  -15.198366964796639

    Opposite-spin MP2 correlation energy      =   -0.080711911262832
    Same-spin MP2 correlation energy          =   -0.001630982394503
    MP2 correlation energy                    =   -0.082342893657334
      * MP2 total energy                      =  -15.280709858453973

    Opposite-spin CCSD correlation energy     =   -0.152404420488605
    Same-spin CCSD correlation energy         =   -0.004230466590342
    CCSD correlation energy                   =   -0.156634887078946
      * CCSD total energy                     =  -15.355001851875585


    Psi4 stopped on: Monday, 03 June 2019 08:42PM
    Psi4 wall time for execution: 0:00:05.68

*** Psi4 exiting successfully. Buy a developer a beer!
