
    -----------------------------------------------------------------------
          Psi4: An Open-Source Ab Initio Electronic Structure Package
                               Psi4 1.3.2 release

                         Git: Rev {HEAD} ecbda83 


    R. M. Parrish, L. A. Burns, D. G. A. Smith, A. C. Simmonett,
    A. E. DePrince III, E. G. Hohenstein, U. Bozkaya, A. Yu. Sokolov,
    R. Di Remigio, R. M. Richard, J. F. Gonthier, A. M. James,
    H. R. McAlexander, A. Kumar, M. Saitow, X. Wang, B. P. Pritchard,
    P. Verma, H. F. Schaefer III, K. Patkowski, R. A. King, E. F. Valeev,
    F. A. Evangelista, J. M. Turney, T. D. Crawford, and C. D. Sherrill,
    J. Chem. Theory Comput. 13(7) pp 3185--3197 (2017).
    (doi: 10.1021/acs.jctc.7b00174)


                         Additional Contributions by
    P. Kraus, H. Kruse, M. H. Lechner, M. C. Schieber, R. A. Shaw,
    A. Alenaizan, R. Galvelis, Z. L. Glick, S. Lehtola, and J. P. Misiewicz

    -----------------------------------------------------------------------


    Psi4 started on: Friday, 31 May 2019 03:21PM

    Process ID: 17283
    Host:       DN0a2224ae.SUNet
    PSIDATADIR: /anaconda3/share/psi4
    Memory:     500.0 MiB
    Threads:    1
    
  ==> Input File <==

--------------------------------------------------------------------------
"""This is a template for psi4 input format."""
import numpy
import sys

from openfermion.config import *
from openfermion.hamiltonians import MolecularData
from openfermion.ops import general_basis_change

from numpy import array

sys.path.append('/anaconda3/lib/python3.6/site-packages/openfermionpsi4')
from _psi4_conversion_functions import *


# Set memory that job can use in megabytes.
memory 8000 mb

# Initialize molecular data.
_description = '1.7'
if _description == 'None':
    _description = None
molecule = MolecularData([['H', [0, 0, -1.7000000000000002]], ['Be', [0, 0, 0]], ['H', [0, 0, 1.7000000000000002]]],
                         'sto-3g',
                         1,
                         0,
                         _description,
                          filename='/anaconda3/lib/python3.6/site-packages/openfermion/data/H2-Be1_sto-3g_singlet_1.7')

# Set molecular geometry and symmetry.
molecule mol {
H 0 0 -1.7000000000000002
Be 0 0 0
H 0 0 1.7000000000000002
symmetry c1
}
mol.set_multiplicity(1)
mol.set_molecular_charge(0)

# Set reference and guess.
if molecule.multiplicity == 1:
    set reference rhf
    set guess sad
else:
    set reference rohf
    set guess gwh

# Set global parameters of calculation.
set globals {
    basis sto-3g
    freeze_core false
    fail_on_maxiter False
    df_scf_guess false
    opdm true
    tpdm true
    soscf false
    scf_type pk
    maxiter 1e6
    num_amps_print 1e6
    r_convergence 1e-6
    d_convergence 1e-6
    e_convergence 1e-6
    ints_tolerance EQUALITY_TOLERANCE
    damping_percentage 0
}

# Run self-consistent field (SCF) calculation.
if 1:
    try:
        hf_energy, hf_wavefunction = energy('scf', return_wfn=True)
        if 1:
            print('Hartree-Fock energy for {} ({} electrons) is {}.'.format(
                molecule.name, molecule.n_electrons, hf_energy))
    except:
        if 1:
            print('WARNING: SCF calculation failed.')
        else:
            raise
    finally:
        # Get orbitals and Fock matrix.
        molecule.hf_energy = hf_energy
        molecule.nuclear_repulsion = mol.nuclear_repulsion_energy()
        molecule.canonical_orbitals = numpy.asarray(hf_wavefunction.Ca())
        molecule.overlap_integrals = numpy.asarray(hf_wavefunction.S())
        molecule.n_orbitals = molecule.canonical_orbitals.shape[0]
        molecule.n_qubits = 2 * molecule.n_orbitals
        molecule.orbital_energies = numpy.asarray(hf_wavefunction.epsilon_a())
        molecule.fock_matrix = numpy.asarray(hf_wavefunction.Fa())

        # Get integrals using MintsHelper.
        mints = MintsHelper(hf_wavefunction.basisset())
        molecule.one_body_integrals = general_basis_change(
            numpy.asarray(mints.ao_kinetic()), molecule.canonical_orbitals, (1, 0))
        molecule.one_body_integrals += general_basis_change(
            numpy.asarray(mints.ao_potential()), molecule.canonical_orbitals, (1, 0))
        two_body_integrals = numpy.asarray(mints.ao_eri())
        two_body_integrals.reshape((molecule.n_orbitals, molecule.n_orbitals,
                                    molecule.n_orbitals, molecule.n_orbitals))
        two_body_integrals = numpy.einsum('psqr', two_body_integrals)
        two_body_integrals = general_basis_change(
            two_body_integrals, molecule.canonical_orbitals, (1, 1, 0, 0))
        molecule.two_body_integrals = two_body_integrals
        molecule.save()


# Perform MP2 energy calculation if there are at least two electrons.
if 1:
    try:
        assert molecule.n_electrons > 1
        mp2_energy = energy('mp2')
        if 1:
            print('MP2 energy for {} ({} electrons) is {}.'.format(
                molecule.name, molecule.n_electrons, mp2_energy))
    except:
        if 1:
            print('WARNING: MP2 calculation failed.')
        else:
            raise
    else:
        molecule.mp2_energy = mp2_energy
        molecule.save()


# Perform configuration interaction singles and doubles (CISD) calculation.
if 1:
    set qc_module detci
    try:
        cisd_energy, cisd_wavefunction = energy('cisd', return_wfn=True)
        if 1:
            print('CISD energy for {} ({} electrons) is {}.'.format(
                molecule.name, molecule.n_electrons, cisd_energy))
    except:
        if 1:
            print('WARNING: CISD calculation failed.')
        else:
            raise
    else:
        # For the functions below, "a" and "b" refer to "up and "down" spins.
        molecule.cisd_energy = cisd_energy

        # Get 1-RDM from CISD calculation.
        cisd_one_rdm_a = numpy.array(cisd_wavefunction.get_opdm(
            0, 0, 'A', True)).reshape(molecule.n_orbitals, molecule.n_orbitals)
        cisd_one_rdm_b = numpy.array(cisd_wavefunction.get_opdm(
            0, 0, 'B', True)).reshape(molecule.n_orbitals, molecule.n_orbitals)

        # Get 2-RDM from CISD calculation.
        cisd_two_rdm_aa = numpy.array(cisd_wavefunction.get_tpdm(
            'AA', False)).reshape(molecule.n_orbitals, molecule.n_orbitals,
                                  molecule.n_orbitals, molecule.n_orbitals)
        cisd_two_rdm_ab = numpy.array(cisd_wavefunction.get_tpdm(
            'AB', False)).reshape(molecule.n_orbitals, molecule.n_orbitals,
                                  molecule.n_orbitals, molecule.n_orbitals)
        cisd_two_rdm_bb = numpy.array(cisd_wavefunction.get_tpdm(
            'BB', False)).reshape(molecule.n_orbitals, molecule.n_orbitals,
                                  molecule.n_orbitals, molecule.n_orbitals)

        # Get overall RDMs.
        cisd_one_rdm, cisd_two_rdm = unpack_spatial_rdm(
            cisd_one_rdm_a, cisd_one_rdm_b, cisd_two_rdm_aa,
            cisd_two_rdm_ab, cisd_two_rdm_bb)

        # Store 1-RDM in molecule file, 2-RDM separately in other file.
        molecule.cisd_one_rdm = cisd_one_rdm
        molecule.cisd_two_rdm = cisd_two_rdm
        molecule.save()


# Perform exact diagonalization.
if 1:
    set qc_module detci
    try:
        fci_energy, fci_wavefunction = energy('fci', return_wfn=True)
        if 1:
            print('FCI energy for {} ({} electrons) is {}.'.format(
                molecule.name, molecule.n_electrons, fci_energy))
    except:
        if 1:
            print('WARNING: FCI calculation failed.')
        else:
            raise
    finally:
        # For the functions below, "a" and "b" refer to "up and "down" spins.
        molecule.fci_energy = fci_energy

        # Get 1-RDM from FCI calculation.
        fci_one_rdm_a = numpy.array(fci_wavefunction.get_opdm(
            0, 0, 'A', True)).reshape(molecule.n_orbitals, molecule.n_orbitals)
        fci_one_rdm_b = numpy.array(fci_wavefunction.get_opdm(
            0, 0, 'B', True)).reshape(molecule.n_orbitals, molecule.n_orbitals)

        # Get 2-RDM from FCI calculation.
        fci_two_rdm_aa = numpy.array(fci_wavefunction.get_tpdm(
            'AA', False)).reshape(molecule.n_orbitals, molecule.n_orbitals,
                                  molecule.n_orbitals, molecule.n_orbitals)
        fci_two_rdm_ab = numpy.array(fci_wavefunction.get_tpdm(
            'AB', False)).reshape(molecule.n_orbitals, molecule.n_orbitals,
                                  molecule.n_orbitals, molecule.n_orbitals)
        fci_two_rdm_bb = numpy.array(fci_wavefunction.get_tpdm(
            'BB', False)).reshape(molecule.n_orbitals, molecule.n_orbitals,
                                  molecule.n_orbitals, molecule.n_orbitals)

        # Get overall RDMs.
        fci_one_rdm, fci_two_rdm = unpack_spatial_rdm(
            fci_one_rdm_a, fci_one_rdm_b,
            fci_two_rdm_aa, fci_two_rdm_ab, fci_two_rdm_bb)

        # Store 1-RDM in molecule file, 2-RDM separately in other file.
        molecule.fci_one_rdm = fci_one_rdm
        molecule.fci_two_rdm = fci_two_rdm
        molecule.save()


# Perform coupled cluster singles and doubles (CCSD) calculation.
if 1:
    set qc_module ccenergy
    try:
        ccsd_energy = energy('ccsd')
        if 1:
            print('CCSD energy for {} ({} electrons) is {}.'.format(
                molecule.name, molecule.n_electrons, ccsd_energy))
    except:
        if 1:
            print('WARNING: CCSD calculation failed.')
        else:
            raise
    else:
        molecule.ccsd_energy = ccsd_energy

        # Merge CC amplitudes into molecule by parsing
        psi_filename = outfile_name()
        single_cc_amplitudes, double_cc_amplitudes = (
            parse_psi4_ccsd_amplitudes(
                2 * molecule.n_orbitals,
                molecule.get_n_alpha_electrons(),
                molecule.get_n_beta_electrons(),
                psi_filename))

        molecule.ccsd_single_amps = single_cc_amplitudes
        molecule.ccsd_double_amps = double_cc_amplitudes
        molecule.save()
--------------------------------------------------------------------------

  Memory set to   7.451 GiB by Python driver.

*** tstart() called on DN0a2224ae.SUNet
*** at Fri May 31 15:21:43 2019

   => Loading Basis Set <=

    Name: STO-3G
    Role: ORBITAL
    Keyword: BASIS
    atoms 1, 3 entry H          line    19 file /anaconda3/share/psi4/basis/sto-3g.gbs 
    atoms 2    entry BE         line    41 file /anaconda3/share/psi4/basis/sto-3g.gbs 


         ---------------------------------------------------------
                                   SCF
               by Justin Turney, Rob Parrish, Andy Simmonett
                          and Daniel G. A. Smith
                              RHF Reference
                        1 Threads,   7629 MiB Core
         ---------------------------------------------------------

  ==> Geometry <==

    Molecular point group: c1
    Full point group: D_inf_h

    Geometry (in Angstrom), charge = 0, multiplicity = 1:

       Center              X                  Y                   Z               Mass       
    ------------   -----------------  -----------------  -----------------  -----------------
         H            0.000000000000     0.000000000000    -1.700000000000     1.007825032230
         BE           0.000000000000     0.000000000000     0.000000000000     9.012183065000
         H            0.000000000000     0.000000000000     1.700000000000     1.007825032230

  Running in c1 symmetry.

  Rotational constants: A = ************  B =      2.89390  C =      2.89390 [cm^-1]
  Rotational constants: A = ************  B =  86756.93884  C =  86756.93884 [MHz]
  Nuclear repulsion =    2.645886053350000

  Charge       = 0
  Multiplicity = 1
  Electrons    = 6
  Nalpha       = 3
  Nbeta        = 3

  ==> Algorithm <==

  SCF Algorithm Type is PK.
  DIIS enabled.
  MOM disabled.
  Fractional occupation disabled.
  Guess Type is SAD.
  Energy threshold   = 1.00e-06
  Density threshold  = 1.00e-06
  Integral threshold = 0.00e+00

  ==> Primary Basis <==

  Basis Set: STO-3G
    Blend: STO-3G
    Number of shells: 5
    Number of basis function: 7
    Number of Cartesian functions: 7
    Spherical Harmonics?: true
    Max angular momentum: 1

  ==> Pre-Iterations <==

   -------------------------------------------------------
    Irrep   Nso     Nmo     Nalpha   Nbeta   Ndocc  Nsocc
   -------------------------------------------------------
     A          7       7       0       0       0       0
   -------------------------------------------------------
    Total       7       7       3       3       3       0
   -------------------------------------------------------

  ==> Integral Setup <==

  Using in-core PK algorithm.
   Calculation information:
      Number of atoms:                   3
      Number of AO shells:               5
      Number of primitives:             15
      Number of atomic orbitals:         7
      Number of basis functions:         7

      Integral cutoff                 1.00e-12
      Number of threads:                 1

  Performing in-core PK
  Using 812 doubles for integral storage.
  We computed 120 shell quartets total.
  Whereas there are 120 unique shell quartets.

  ==> DiskJK: Disk-Based J/K Matrices <==

    J tasked:                  Yes
    K tasked:                  Yes
    wK tasked:                  No
    Memory [MiB]:             5722
    Schwarz Cutoff:          1E-12

    OpenMP threads:              1

  Minimum eigenvalue in the overlap matrix is 4.1624006603E-01.
  Using Symmetric Orthogonalization.

  SCF Guess: Superposition of Atomic Densities via on-the-fly atomic UHF.

  ==> Iterations <==

                        Total Energy        Delta E     RMS |[F,P]|

   @RHF iter SAD:   -14.51651565551068   -1.45165e+01   0.00000e+00 
   @RHF iter   1:   -15.44198055148189   -9.25465e-01   2.17940e-02 DIIS
   @RHF iter   2:   -15.47058718112698   -2.86066e-02   6.39419e-04 DIIS
   @RHF iter   3:   -15.47060458815400   -1.74070e-05   1.22898e-04 DIIS
   @RHF iter   4:   -15.47060580465524   -1.21650e-06   1.81451e-05 DIIS
   @RHF iter   5:   -15.47060583126004   -2.66048e-08   3.56132e-08 DIIS
  Energy and wave function converged.


  ==> Post-Iterations <==

    Orbital Energies [Eh]
    ---------------------

    Doubly Occupied:                                                      

       1A     -4.541815     2A     -0.396687     3A     -0.350833  

    Virtual:                                                              

       4A      0.212709     5A      0.212709     6A      0.303320  
       7A      0.602964  

    Final Occupation by Irrep:
              A 
    DOCC [     3 ]

  @RHF Final Energy:   -15.47060583126004

   => Energetics <=

    Nuclear Repulsion Energy =              2.6458860533499999
    One-Electron Energy =                 -25.6543147975901711
    Two-Electron Energy =                   7.5378229129801309
    Total Energy =                        -15.4706058312600394

Computation Completed


Properties will be evaluated at   0.000000,   0.000000,   0.000000 [a0]

Properties computed using the SCF density matrix

  Nuclear Dipole Moment: [e a0]
     X:     0.0000      Y:     0.0000      Z:     0.0000

  Electronic Dipole Moment: [e a0]
     X:    -0.0000      Y:     0.0000      Z:    -0.0000

  Dipole Moment: [e a0]
     X:    -0.0000      Y:     0.0000      Z:    -0.0000     Total:     0.0000

  Dipole Moment: [D]
     X:    -0.0000      Y:     0.0000      Z:    -0.0000     Total:     0.0000


*** tstop() called on DN0a2224ae.SUNet at Fri May 31 15:21:43 2019
Module time:
	user time   =       0.24 seconds =       0.00 minutes
	system time =       0.02 seconds =       0.00 minutes
	total time  =          0 seconds =       0.00 minutes
Total time:
	user time   =       0.24 seconds =       0.00 minutes
	system time =       0.02 seconds =       0.00 minutes
	total time  =          0 seconds =       0.00 minutes

*** tstart() called on DN0a2224ae.SUNet
*** at Fri May 31 15:21:43 2019

   => Loading Basis Set <=

    Name: STO-3G
    Role: ORBITAL
    Keyword: BASIS
    atoms 1, 3 entry H          line    19 file /anaconda3/share/psi4/basis/sto-3g.gbs 
    atoms 2    entry BE         line    41 file /anaconda3/share/psi4/basis/sto-3g.gbs 


         ---------------------------------------------------------
                                   SCF
               by Justin Turney, Rob Parrish, Andy Simmonett
                          and Daniel G. A. Smith
                              RHF Reference
                        1 Threads,   7629 MiB Core
         ---------------------------------------------------------

  ==> Geometry <==

    Molecular point group: c1
    Full point group: D_inf_h

    Geometry (in Angstrom), charge = 0, multiplicity = 1:

       Center              X                  Y                   Z               Mass       
    ------------   -----------------  -----------------  -----------------  -----------------
         H            0.000000000000     0.000000000000    -1.700000000000     1.007825032230
         BE           0.000000000000     0.000000000000     0.000000000000     9.012183065000
         H            0.000000000000     0.000000000000     1.700000000000     1.007825032230

  Running in c1 symmetry.

  Rotational constants: A = ************  B =      2.89390  C =      2.89390 [cm^-1]
  Rotational constants: A = ************  B =  86756.93884  C =  86756.93884 [MHz]
  Nuclear repulsion =    2.645886053350000

  Charge       = 0
  Multiplicity = 1
  Electrons    = 6
  Nalpha       = 3
  Nbeta        = 3

  ==> Algorithm <==

  SCF Algorithm Type is PK.
  DIIS enabled.
  MOM disabled.
  Fractional occupation disabled.
  Guess Type is SAD.
  Energy threshold   = 1.00e-06
  Density threshold  = 1.00e-06
  Integral threshold = 0.00e+00

  ==> Primary Basis <==

  Basis Set: STO-3G
    Blend: STO-3G
    Number of shells: 5
    Number of basis function: 7
    Number of Cartesian functions: 7
    Spherical Harmonics?: true
    Max angular momentum: 1

  ==> Pre-Iterations <==

   -------------------------------------------------------
    Irrep   Nso     Nmo     Nalpha   Nbeta   Ndocc  Nsocc
   -------------------------------------------------------
     A          7       7       0       0       0       0
   -------------------------------------------------------
    Total       7       7       3       3       3       0
   -------------------------------------------------------

  ==> Integral Setup <==

  Using in-core PK algorithm.
   Calculation information:
      Number of atoms:                   3
      Number of AO shells:               5
      Number of primitives:             15
      Number of atomic orbitals:         7
      Number of basis functions:         7

      Integral cutoff                 1.00e-12
      Number of threads:                 1

  Performing in-core PK
  Using 812 doubles for integral storage.
  We computed 120 shell quartets total.
  Whereas there are 120 unique shell quartets.

  ==> DiskJK: Disk-Based J/K Matrices <==

    J tasked:                  Yes
    K tasked:                  Yes
    wK tasked:                  No
    Memory [MiB]:             5722
    Schwarz Cutoff:          1E-12

    OpenMP threads:              1

  Minimum eigenvalue in the overlap matrix is 4.1624006603E-01.
  Using Symmetric Orthogonalization.

  SCF Guess: Superposition of Atomic Densities via on-the-fly atomic UHF.

  ==> Iterations <==

                        Total Energy        Delta E     RMS |[F,P]|

   @RHF iter SAD:   -14.51651565551068   -1.45165e+01   0.00000e+00 
   @RHF iter   1:   -15.44198055148189   -9.25465e-01   2.17940e-02 DIIS
   @RHF iter   2:   -15.47058718112698   -2.86066e-02   6.39419e-04 DIIS
   @RHF iter   3:   -15.47060458815400   -1.74070e-05   1.22898e-04 DIIS
   @RHF iter   4:   -15.47060580465524   -1.21650e-06   1.81451e-05 DIIS
   @RHF iter   5:   -15.47060583126004   -2.66048e-08   3.56132e-08 DIIS
  Energy and wave function converged.


  ==> Post-Iterations <==

    Orbital Energies [Eh]
    ---------------------

    Doubly Occupied:                                                      

       1A     -4.541815     2A     -0.396687     3A     -0.350833  

    Virtual:                                                              

       4A      0.212709     5A      0.212709     6A      0.303320  
       7A      0.602964  

    Final Occupation by Irrep:
              A 
    DOCC [     3 ]

  @RHF Final Energy:   -15.47060583126004

   => Energetics <=

    Nuclear Repulsion Energy =              2.6458860533499999
    One-Electron Energy =                 -25.6543147975901711
    Two-Electron Energy =                   7.5378229129801309
    Total Energy =                        -15.4706058312600394

Computation Completed


Properties will be evaluated at   0.000000,   0.000000,   0.000000 [a0]

Properties computed using the SCF density matrix

  Nuclear Dipole Moment: [e a0]
     X:     0.0000      Y:     0.0000      Z:     0.0000

  Electronic Dipole Moment: [e a0]
     X:    -0.0000      Y:     0.0000      Z:    -0.0000

  Dipole Moment: [e a0]
     X:    -0.0000      Y:     0.0000      Z:    -0.0000     Total:     0.0000

  Dipole Moment: [D]
     X:    -0.0000      Y:     0.0000      Z:    -0.0000     Total:     0.0000


*** tstop() called on DN0a2224ae.SUNet at Fri May 31 15:21:43 2019
Module time:
	user time   =       0.21 seconds =       0.00 minutes
	system time =       0.01 seconds =       0.00 minutes
	total time  =          0 seconds =       0.00 minutes
Total time:
	user time   =       0.48 seconds =       0.01 minutes
	system time =       0.03 seconds =       0.00 minutes
	total time  =          0 seconds =       0.00 minutes

*** tstart() called on DN0a2224ae.SUNet
*** at Fri May 31 15:21:43 2019


  //>>>>>>>>>>>>>>>>>>>>>>>>>>>>>>>>>>>//
  //               DFMP2               //
  //<<<<<<<<<<<<<<<<<<<<<<<<<<<<<<<<<<<//

   => Loading Basis Set <=

    Name: (STO-3G AUX)
    Role: RIFIT
    Keyword: DF_BASIS_MP2
    atoms 1, 3 entry H          line    24 file /anaconda3/share/psi4/basis/def2-qzvpp-ri.gbs 
    atoms 2    entry BE         line   146 file /anaconda3/share/psi4/basis/def2-qzvpp-ri.gbs 

	 --------------------------------------------------------
	                          DF-MP2                         
	      2nd-Order Density-Fitted Moller-Plesset Theory     
	              RMP2 Wavefunction,   1 Threads             
	                                                         
	        Rob Parrish, Justin Turney, Andy Simmonett,      
	           Ed Hohenstein, and C. David Sherrill          
	 --------------------------------------------------------

   => Auxiliary Basis Set <=

  Basis Set: (STO-3G AUX)
    Blend: DEF2-QZVPP-RI
    Number of shells: 59
    Number of basis function: 213
    Number of Cartesian functions: 272
    Spherical Harmonics?: true
    Max angular momentum: 4

	 --------------------------------------------------------
	                 NBF =     7, NAUX =   213
	 --------------------------------------------------------
	   CLASS    FOCC     OCC    AOCC    AVIR     VIR    FVIR
	   PAIRS       0       3       3       4       4       0
	 --------------------------------------------------------

	-----------------------------------------------------------
	 ==================> DF-MP2 Energies <==================== 
	-----------------------------------------------------------
	 Reference Energy          =     -15.4706058312600394 [Eh]
	 Singles Energy            =      -0.0000000000000000 [Eh]
	 Same-Spin Energy          =      -0.0004082851108518 [Eh]
	 Opposite-Spin Energy      =      -0.0348837497295568 [Eh]
	 Correlation Energy        =      -0.0352920348404086 [Eh]
	 Total Energy              =     -15.5058978661004474 [Eh]
	-----------------------------------------------------------
	 ================> DF-SCS-MP2 Energies <================== 
	-----------------------------------------------------------
	 SCS Same-Spin Scale       =       0.3333333333333333 [-]
	 SCS Opposite-Spin Scale   =       1.2000000000000000 [-]
	 SCS Same-Spin Energy      =      -0.0001360950369506 [Eh]
	 SCS Opposite-Spin Energy  =      -0.0418604996754681 [Eh]
	 SCS Correlation Energy    =      -0.0419965947124187 [Eh]
	 SCS Total Energy          =     -15.5126024259724584 [Eh]
	-----------------------------------------------------------


*** tstop() called on DN0a2224ae.SUNet at Fri May 31 15:21:43 2019
Module time:
	user time   =       0.10 seconds =       0.00 minutes
	system time =       0.00 seconds =       0.00 minutes
	total time  =          0 seconds =       0.00 minutes
Total time:
	user time   =       0.59 seconds =       0.01 minutes
	system time =       0.04 seconds =       0.00 minutes
	total time  =          0 seconds =       0.00 minutes

*** tstart() called on DN0a2224ae.SUNet
*** at Fri May 31 15:21:43 2019

   => Loading Basis Set <=

    Name: STO-3G
    Role: ORBITAL
    Keyword: BASIS
    atoms 1, 3 entry H          line    19 file /anaconda3/share/psi4/basis/sto-3g.gbs 
    atoms 2    entry BE         line    41 file /anaconda3/share/psi4/basis/sto-3g.gbs 


         ---------------------------------------------------------
                                   SCF
               by Justin Turney, Rob Parrish, Andy Simmonett
                          and Daniel G. A. Smith
                              RHF Reference
                        1 Threads,   7629 MiB Core
         ---------------------------------------------------------

  ==> Geometry <==

    Molecular point group: c1
    Full point group: D_inf_h

    Geometry (in Angstrom), charge = 0, multiplicity = 1:

       Center              X                  Y                   Z               Mass       
    ------------   -----------------  -----------------  -----------------  -----------------
         H            0.000000000000     0.000000000000    -1.700000000000     1.007825032230
         BE           0.000000000000     0.000000000000     0.000000000000     9.012183065000
         H            0.000000000000     0.000000000000     1.700000000000     1.007825032230

  Running in c1 symmetry.

  Rotational constants: A = ************  B =      2.89390  C =      2.89390 [cm^-1]
  Rotational constants: A = ************  B =  86756.93884  C =  86756.93884 [MHz]
  Nuclear repulsion =    2.645886053350000

  Charge       = 0
  Multiplicity = 1
  Electrons    = 6
  Nalpha       = 3
  Nbeta        = 3

  ==> Algorithm <==

  SCF Algorithm Type is PK.
  DIIS enabled.
  MOM disabled.
  Fractional occupation disabled.
  Guess Type is SAD.
  Energy threshold   = 1.00e-06
  Density threshold  = 1.00e-06
  Integral threshold = 0.00e+00

  ==> Primary Basis <==

  Basis Set: STO-3G
    Blend: STO-3G
    Number of shells: 5
    Number of basis function: 7
    Number of Cartesian functions: 7
    Spherical Harmonics?: true
    Max angular momentum: 1

  ==> Pre-Iterations <==

   -------------------------------------------------------
    Irrep   Nso     Nmo     Nalpha   Nbeta   Ndocc  Nsocc
   -------------------------------------------------------
     A          7       7       0       0       0       0
   -------------------------------------------------------
    Total       7       7       3       3       3       0
   -------------------------------------------------------

  ==> Integral Setup <==

  Using in-core PK algorithm.
   Calculation information:
      Number of atoms:                   3
      Number of AO shells:               5
      Number of primitives:             15
      Number of atomic orbitals:         7
      Number of basis functions:         7

      Integral cutoff                 1.00e-12
      Number of threads:                 1

  Performing in-core PK
  Using 812 doubles for integral storage.
  We computed 120 shell quartets total.
  Whereas there are 120 unique shell quartets.

  ==> DiskJK: Disk-Based J/K Matrices <==

    J tasked:                  Yes
    K tasked:                  Yes
    wK tasked:                  No
    Memory [MiB]:             5722
    Schwarz Cutoff:          1E-12

    OpenMP threads:              1

  Minimum eigenvalue in the overlap matrix is 4.1624006603E-01.
  Using Symmetric Orthogonalization.

  SCF Guess: Superposition of Atomic Densities via on-the-fly atomic UHF.

  ==> Iterations <==

                        Total Energy        Delta E     RMS |[F,P]|

   @RHF iter SAD:   -14.51651565551068   -1.45165e+01   0.00000e+00 
   @RHF iter   1:   -15.44198055148189   -9.25465e-01   2.17940e-02 DIIS
   @RHF iter   2:   -15.47058718112698   -2.86066e-02   6.39419e-04 DIIS
   @RHF iter   3:   -15.47060458815400   -1.74070e-05   1.22898e-04 DIIS
   @RHF iter   4:   -15.47060580465524   -1.21650e-06   1.81451e-05 DIIS
   @RHF iter   5:   -15.47060583126004   -2.66048e-08   3.56132e-08 DIIS
  Energy and wave function converged.


  ==> Post-Iterations <==

    Orbital Energies [Eh]
    ---------------------

    Doubly Occupied:                                                      

       1A     -4.541815     2A     -0.396687     3A     -0.350833  

    Virtual:                                                              

       4A      0.212709     5A      0.212709     6A      0.303320  
       7A      0.602964  

    Final Occupation by Irrep:
              A 
    DOCC [     3 ]

  @RHF Final Energy:   -15.47060583126004

   => Energetics <=

    Nuclear Repulsion Energy =              2.6458860533499999
    One-Electron Energy =                 -25.6543147975901711
    Two-Electron Energy =                   7.5378229129801309
    Total Energy =                        -15.4706058312600394

Computation Completed


Properties will be evaluated at   0.000000,   0.000000,   0.000000 [a0]

Properties computed using the SCF density matrix

  Nuclear Dipole Moment: [e a0]
     X:     0.0000      Y:     0.0000      Z:     0.0000

  Electronic Dipole Moment: [e a0]
     X:    -0.0000      Y:     0.0000      Z:    -0.0000

  Dipole Moment: [e a0]
     X:    -0.0000      Y:     0.0000      Z:    -0.0000     Total:     0.0000

  Dipole Moment: [D]
     X:    -0.0000      Y:     0.0000      Z:    -0.0000     Total:     0.0000


*** tstop() called on DN0a2224ae.SUNet at Fri May 31 15:21:44 2019
Module time:
	user time   =       0.20 seconds =       0.00 minutes
	system time =       0.02 seconds =       0.00 minutes
	total time  =          1 seconds =       0.02 minutes
Total time:
	user time   =       0.82 seconds =       0.01 minutes
	system time =       0.06 seconds =       0.00 minutes
	total time  =          1 seconds =       0.02 minutes
 MINTS: Wrapper to libmints.
   by Justin Turney

   Calculation information:
      Number of threads:                 1
      Number of atoms:                   3
      Number of AO shells:               5
      Number of SO shells:               5
      Number of primitives:             15
      Number of atomic orbitals:         7
      Number of basis functions:         7

      Number of irreps:                  1
      Integral cutoff                 0.00e+00
      Number of functions per irrep: [   7 ]

 OEINTS: Overlap, kinetic, potential, dipole, and quadrupole integrals
         stored in file 35.

      Computing two-electron integrals...done
      Computed 167 non-zero two-electron integrals.
        Stored in file 33.


         ---------------------------------------------------------
                          Configuration Interaction
                            (a 'D E T C I' module)

                 C. David Sherrill, Daniel G. A. Smith, and
                              Matt L. Leininger
         ---------------------------------------------------------


   ==> Parameters <==

    EX LEVEL       =        2      H0 BLOCKSIZE  =     1000
    VAL EX LEVEL   =        0      H0 GUESS SIZE =     1000
    H0COUPLINGSIZE =        0      H0 COUPLING   =       NO
    MAXITER        =       24      NUM PRINT     =       20
    NUM ROOTS      =        1      ICORE         =        1
    PRINT LVL      =        1      FCI           =       NO
    R CONV         = 1.00e-06      MIXED         =      YES
    E CONV         = 1.00e-06      MIXED4        =      YES
    R4S            =       NO      REPL OTF      =       NO
    DIAG METHOD    =      SEM      FOLLOW ROOT   =        0
    PRECONDITIONER = DAVIDSON      UPDATE        = DAVIDSON
    S              =   0.0000      Ms0           =      YES
    GUESS VECTOR   =  H0BLOCK      OPENTYPE      =     NONE
    COLLAPSE SIZE  =        1      HD AVG        = EVANGELISTI
    MAX NUM VECS   =       25      REF SYM       =     AUTO
    IOPEN        =       NO

    EX ALLOW       =  1  1 
    STATE AVERAGE  =  0(1.00) 

   ==> CI Orbital and Space information <==

    RAS1 LVL      =        2      A RAS3 MAX    =        2
    RAS1 MIN      =        4      B RAS3 MAX    =        2
    A RAS1 LVL    =        2      RAS4 LVL      =        7
    A RAS1 MIN    =        1      A RAS4 MAX    =        0
    A RAS1 MAX    =        3      B RAS4 MAX    =        0
    B RAS1 LVL    =        2      RAS4 MAX      =        0
    B RAS1 MIN    =        1      A RAS34 MAX   =        2
    B RAS1 MAX    =        3      B RAS34 MAX   =        2
    RAS3 LVL      =        3      RAS34 MAX     =        2
    RAS3 MAX      =        2
   ------------------------------------
               Space    Total     A
   ------------------------------------
                 Nso        7     7
                 Nmo        7     7
               Ndocc        3     3
               Nsocc        0     0
   ------------------------------------
              CI Spaces
   ------------------------------------
        Dropped DOCC        0     0
                RAS1        3     3
                RAS2        0     0
                RAS3        4     4
                RAS4        0     0
      Active (total)        7     7
        Dropped UOCC        0     0
   ------------------------------------

   ==> Setting up CI strings <==

    There are 31 alpha and 31 beta strings
    The CI space requires 205 (2.05E+02) determinants and 6 blocks

   ==> Transforming CI integrals <==

	Presorting SO-basis two-electron integrals.
	Sorting File: SO Ints (nn|nn) nbuckets = 1
	Transforming the one-electron integrals and constructing Fock matrices
	Starting first half-transformation.
	Sorting half-transformed integrals.
	First half integral transformation complete.
	Starting second half-transformation.
	Two-electron integral transformation complete.

   ==> Starting CI iterations <==

    H0 Block Eigenvalue = -15.52672373

    Simultaneous Expansion Method (Block Davidson Method)
    Using 1 initial trial vectors

     Iter   Root       Total Energy       Delta E      C RMS

   @CI  0:     0    -15.526723731757   -1.8173E+01   8.2652E-14  
    Warning: Norm of correction (root 0) is < 1.0E-13
   @CI  1:     0    -15.526723731757   3.5527E-15   3.5469E-13 c

   ==> Energetics <==

    SCF energy =          -15.470605831260039
    Total CI energy =     -15.526723731756771

   ==> CISD root 0 information <==

    CISD Root 0 energy =   -15.526723731756771

   The 20 most important determinants:

    *   1    0.970865  (    0,    0)  1AX 2AX 3AX 
    *   2   -0.126803  (    7,    7)  1AX 2AX 6AX 
    *   3   -0.085113  (    8,    8)  1AX 3AX 6AX 
    *   4    0.079636  (    8,   10)  1AX 2AB 3AA 6AA 7AB 
    *   5    0.079636  (   10,    8)  1AX 2AA 3AB 6AB 7AA 
    *   6    0.066614  (    7,   11)  1AX 2AA 3AB 6AA 7AB 
    *   7    0.066614  (   11,    7)  1AX 2AB 3AA 6AB 7AA 
    *   8   -0.064142  (   10,   10)  1AX 2AX 7AX 
    *   9   -0.052104  (    5,    5)  1AX 3AX 5AX 
    *  10   -0.052104  (    2,    2)  1AX 3AX 4AX 
    *  11   -0.045449  (   11,   11)  1AX 3AX 7AX 
    *  12    0.014798  (    0,    8)  1AX 2AA 3AX 6AB 
    *  13    0.014798  (    8,    0)  1AX 2AB 3AX 6AA 
    *  14   -0.013022  (    0,   28)  1AX 2AA 3AA 6AB 7AB 
    *  15   -0.013022  (   28,    0)  1AX 2AB 3AB 6AA 7AA 
    *  16    0.005551  (    4,    4)  1AX 2AX 5AX 
    *  17    0.005551  (    1,    1)  1AX 2AX 4AX 
    *  18    0.004268  (    0,   10)  1AX 2AX 3AA 7AB 
    *  19    0.004268  (   10,    0)  1AX 2AX 3AB 7AA 
    *  20   -0.002997  (    2,    3)  1AA 2AB 3AX 4AX 

		 "A good bug is a dead bug" 

			 - Starship Troopers

		 "I didn't write FORTRAN.  That's the problem."

			 - Edward Valeev

*** tstart() called on DN0a2224ae.SUNet
*** at Fri May 31 15:21:44 2019

   => Loading Basis Set <=

    Name: STO-3G
    Role: ORBITAL
    Keyword: BASIS
    atoms 1, 3 entry H          line    19 file /anaconda3/share/psi4/basis/sto-3g.gbs 
    atoms 2    entry BE         line    41 file /anaconda3/share/psi4/basis/sto-3g.gbs 


         ---------------------------------------------------------
                                   SCF
               by Justin Turney, Rob Parrish, Andy Simmonett
                          and Daniel G. A. Smith
                              RHF Reference
                        1 Threads,   7629 MiB Core
         ---------------------------------------------------------

  ==> Geometry <==

    Molecular point group: c1
    Full point group: D_inf_h

    Geometry (in Angstrom), charge = 0, multiplicity = 1:

       Center              X                  Y                   Z               Mass       
    ------------   -----------------  -----------------  -----------------  -----------------
         H            0.000000000000     0.000000000000    -1.700000000000     1.007825032230
         BE           0.000000000000     0.000000000000     0.000000000000     9.012183065000
         H            0.000000000000     0.000000000000     1.700000000000     1.007825032230

  Running in c1 symmetry.

  Rotational constants: A = ************  B =      2.89390  C =      2.89390 [cm^-1]
  Rotational constants: A = ************  B =  86756.93884  C =  86756.93884 [MHz]
  Nuclear repulsion =    2.645886053350000

  Charge       = 0
  Multiplicity = 1
  Electrons    = 6
  Nalpha       = 3
  Nbeta        = 3

  ==> Algorithm <==

  SCF Algorithm Type is PK.
  DIIS enabled.
  MOM disabled.
  Fractional occupation disabled.
  Guess Type is SAD.
  Energy threshold   = 1.00e-06
  Density threshold  = 1.00e-06
  Integral threshold = 0.00e+00

  ==> Primary Basis <==

  Basis Set: STO-3G
    Blend: STO-3G
    Number of shells: 5
    Number of basis function: 7
    Number of Cartesian functions: 7
    Spherical Harmonics?: true
    Max angular momentum: 1

  ==> Pre-Iterations <==

   -------------------------------------------------------
    Irrep   Nso     Nmo     Nalpha   Nbeta   Ndocc  Nsocc
   -------------------------------------------------------
     A          7       7       0       0       0       0
   -------------------------------------------------------
    Total       7       7       3       3       3       0
   -------------------------------------------------------

  ==> Integral Setup <==

  Using in-core PK algorithm.
   Calculation information:
      Number of atoms:                   3
      Number of AO shells:               5
      Number of primitives:             15
      Number of atomic orbitals:         7
      Number of basis functions:         7

      Integral cutoff                 1.00e-12
      Number of threads:                 1

  Performing in-core PK
  Using 812 doubles for integral storage.
  We computed 120 shell quartets total.
  Whereas there are 120 unique shell quartets.

  ==> DiskJK: Disk-Based J/K Matrices <==

    J tasked:                  Yes
    K tasked:                  Yes
    wK tasked:                  No
    Memory [MiB]:             5722
    Schwarz Cutoff:          1E-12

    OpenMP threads:              1

  Minimum eigenvalue in the overlap matrix is 4.1624006603E-01.
  Using Symmetric Orthogonalization.

  SCF Guess: Superposition of Atomic Densities via on-the-fly atomic UHF.

  ==> Iterations <==

                        Total Energy        Delta E     RMS |[F,P]|

   @RHF iter SAD:   -14.51651565551068   -1.45165e+01   0.00000e+00 
   @RHF iter   1:   -15.44198055148189   -9.25465e-01   2.17940e-02 DIIS
   @RHF iter   2:   -15.47058718112698   -2.86066e-02   6.39419e-04 DIIS
   @RHF iter   3:   -15.47060458815400   -1.74070e-05   1.22898e-04 DIIS
   @RHF iter   4:   -15.47060580465524   -1.21650e-06   1.81451e-05 DIIS
   @RHF iter   5:   -15.47060583126004   -2.66048e-08   3.56132e-08 DIIS
  Energy and wave function converged.


  ==> Post-Iterations <==

    Orbital Energies [Eh]
    ---------------------

    Doubly Occupied:                                                      

       1A     -4.541815     2A     -0.396687     3A     -0.350833  

    Virtual:                                                              

       4A      0.212709     5A      0.212709     6A      0.303320  
       7A      0.602964  

    Final Occupation by Irrep:
              A 
    DOCC [     3 ]

  @RHF Final Energy:   -15.47060583126004

   => Energetics <=

    Nuclear Repulsion Energy =              2.6458860533499999
    One-Electron Energy =                 -25.6543147975901711
    Two-Electron Energy =                   7.5378229129801309
    Total Energy =                        -15.4706058312600394

Computation Completed


Properties will be evaluated at   0.000000,   0.000000,   0.000000 [a0]

Properties computed using the SCF density matrix

  Nuclear Dipole Moment: [e a0]
     X:     0.0000      Y:     0.0000      Z:     0.0000

  Electronic Dipole Moment: [e a0]
     X:    -0.0000      Y:     0.0000      Z:    -0.0000

  Dipole Moment: [e a0]
     X:    -0.0000      Y:     0.0000      Z:    -0.0000     Total:     0.0000

  Dipole Moment: [D]
     X:    -0.0000      Y:     0.0000      Z:    -0.0000     Total:     0.0000


*** tstop() called on DN0a2224ae.SUNet at Fri May 31 15:21:44 2019
Module time:
	user time   =       0.20 seconds =       0.00 minutes
	system time =       0.01 seconds =       0.00 minutes
	total time  =          0 seconds =       0.00 minutes
Total time:
	user time   =       1.08 seconds =       0.02 minutes
	system time =       0.09 seconds =       0.00 minutes
	total time  =          1 seconds =       0.02 minutes
 MINTS: Wrapper to libmints.
   by Justin Turney

   Calculation information:
      Number of threads:                 1
      Number of atoms:                   3
      Number of AO shells:               5
      Number of SO shells:               5
      Number of primitives:             15
      Number of atomic orbitals:         7
      Number of basis functions:         7

      Number of irreps:                  1
      Integral cutoff                 0.00e+00
      Number of functions per irrep: [   7 ]

 OEINTS: Overlap, kinetic, potential, dipole, and quadrupole integrals
         stored in file 35.

      Computing two-electron integrals...done
      Computed 167 non-zero two-electron integrals.
        Stored in file 33.


         ---------------------------------------------------------
                          Configuration Interaction
                            (a 'D E T C I' module)

                 C. David Sherrill, Daniel G. A. Smith, and
                              Matt L. Leininger
         ---------------------------------------------------------


   ==> Parameters <==

    EX LEVEL       =        6      H0 BLOCKSIZE  =     1000
    VAL EX LEVEL   =        0      H0 GUESS SIZE =     1000
    H0COUPLINGSIZE =        0      H0 COUPLING   =       NO
    MAXITER        =       24      NUM PRINT     =       20
    NUM ROOTS      =        1      ICORE         =        1
    PRINT LVL      =        1      FCI           =      YES
    R CONV         = 1.00e-06      MIXED         =      YES
    E CONV         = 1.00e-06      MIXED4        =      YES
    R4S            =       NO      REPL OTF      =       NO
    DIAG METHOD    =      SEM      FOLLOW ROOT   =        0
    PRECONDITIONER = DAVIDSON      UPDATE        = DAVIDSON
    S              =   0.0000      Ms0           =      YES
    GUESS VECTOR   =  H0BLOCK      OPENTYPE      =     NONE
    COLLAPSE SIZE  =        1      HD AVG        = EVANGELISTI
    MAX NUM VECS   =       25      REF SYM       =     AUTO
    IOPEN        =       NO

    EX ALLOW       =  1  1  1  1  1  1 
    STATE AVERAGE  =  0(1.00) 

   ==> CI Orbital and Space information <==

   ------------------------------------
               Space    Total     A
   ------------------------------------
                 Nso        7     7
                 Nmo        7     7
               Ndocc        3     3
               Nsocc        0     0
   ------------------------------------
              CI Spaces
   ------------------------------------
        Dropped DOCC        0     0
              Active        7     7
        Dropped UOCC        0     0
   ------------------------------------

   ==> Setting up CI strings <==

    There are 35 alpha and 35 beta strings
    The CI space requires 1225 (1.22E+03) determinants and 1 blocks

   ==> Transforming CI integrals <==

	Presorting SO-basis two-electron integrals.
	Sorting File: SO Ints (nn|nn) nbuckets = 1
	Transforming the one-electron integrals and constructing Fock matrices
	Starting first half-transformation.
	Sorting half-transformed integrals.
	First half integral transformation complete.
	Starting second half-transformation.
	Two-electron integral transformation complete.

   ==> Starting CI iterations <==

    H0 Block Eigenvalue = -15.52911703

    Simultaneous Expansion Method (Block Davidson Method)
    Using 1 initial trial vectors

     Iter   Root       Total Energy       Delta E      C RMS

   @CI  0:     0    -15.529117032900   -1.8175E+01   6.9726E-03  
   @CI  1:     0    -15.529121323427   -4.2905E-06   3.6461E-04  
   @CI  2:     0    -15.529121337178   -1.3750E-08   3.9957E-05  
   @CI  3:     0    -15.529121337488   -3.1056E-10   1.1584E-05  
   @CI  4:     0    -15.529121337515   -2.6880E-11   2.6704E-06  
   @CI  5:     0    -15.529121337516   -1.2221E-12   5.2179E-07 c

   ==> Energetics <==

    SCF energy =          -15.470605831260039
    Total CI energy =     -15.529121337516425

   ==> FCI root 0 information <==

    FCI Root 0 energy =   -15.529121337516425

   The 20 most important determinants:

    *   1    0.967023  (    0,    0)  1AX 2AX 3AX 
    *   2   -0.135528  (   10,   10)  1AX 2AX 6AX 
    *   3   -0.085487  (   11,   11)  1AX 3AX 6AX 
    *   4    0.082337  (   11,   20)  1AX 2AB 3AA 6AA 7AB 
    *   5    0.082337  (   20,   11)  1AX 2AA 3AB 6AB 7AA 
    *   6    0.068174  (   10,   21)  1AX 2AA 3AB 6AA 7AB 
    *   7    0.068174  (   21,   10)  1AX 2AB 3AA 6AB 7AA 
    *   8   -0.065070  (   20,   20)  1AX 2AX 7AX 
    *   9   -0.058758  (    5,    5)  1AX 3AX 5AX 
    *  10   -0.058758  (    2,    2)  1AX 3AX 4AX 
    *  11   -0.045078  (   21,   21)  1AX 3AX 7AX 
    *  12    0.024346  (   30,   30)  1AX 6AX 7AX 
    *  13    0.017798  (    0,   11)  1AX 2AA 3AX 6AB 
    *  14    0.017798  (   11,    0)  1AX 2AB 3AX 6AA 
    *  15   -0.014163  (    0,   30)  1AX 2AA 3AA 6AB 7AB 
    *  16   -0.014163  (   30,    0)  1AX 2AB 3AB 6AA 7AA 
    *  17   -0.011596  (    4,   16)  1AX 2AA 5AX 6AB 
    *  18   -0.011596  (   16,    4)  1AX 2AB 5AX 6AA 
    *  19   -0.011596  (    1,   13)  1AX 2AA 4AX 6AB 
    *  20   -0.011596  (   13,    1)  1AX 2AB 4AX 6AA 

		 "A good bug is a dead bug" 

			 - Starship Troopers

		 "I didn't write FORTRAN.  That's the problem."

			 - Edward Valeev

*** tstart() called on DN0a2224ae.SUNet
*** at Fri May 31 15:21:44 2019

   => Loading Basis Set <=

    Name: STO-3G
    Role: ORBITAL
    Keyword: BASIS
    atoms 1, 3 entry H          line    19 file /anaconda3/share/psi4/basis/sto-3g.gbs 
    atoms 2    entry BE         line    41 file /anaconda3/share/psi4/basis/sto-3g.gbs 


         ---------------------------------------------------------
                                   SCF
               by Justin Turney, Rob Parrish, Andy Simmonett
                          and Daniel G. A. Smith
                              RHF Reference
                        1 Threads,   7629 MiB Core
         ---------------------------------------------------------

  ==> Geometry <==

    Molecular point group: c1
    Full point group: D_inf_h

    Geometry (in Angstrom), charge = 0, multiplicity = 1:

       Center              X                  Y                   Z               Mass       
    ------------   -----------------  -----------------  -----------------  -----------------
         H            0.000000000000     0.000000000000    -1.700000000000     1.007825032230
         BE           0.000000000000     0.000000000000     0.000000000000     9.012183065000
         H            0.000000000000     0.000000000000     1.700000000000     1.007825032230

  Running in c1 symmetry.

  Rotational constants: A = ************  B =      2.89390  C =      2.89390 [cm^-1]
  Rotational constants: A = ************  B =  86756.93884  C =  86756.93884 [MHz]
  Nuclear repulsion =    2.645886053350000

  Charge       = 0
  Multiplicity = 1
  Electrons    = 6
  Nalpha       = 3
  Nbeta        = 3

  ==> Algorithm <==

  SCF Algorithm Type is PK.
  DIIS enabled.
  MOM disabled.
  Fractional occupation disabled.
  Guess Type is SAD.
  Energy threshold   = 1.00e-06
  Density threshold  = 1.00e-06
  Integral threshold = 0.00e+00

  ==> Primary Basis <==

  Basis Set: STO-3G
    Blend: STO-3G
    Number of shells: 5
    Number of basis function: 7
    Number of Cartesian functions: 7
    Spherical Harmonics?: true
    Max angular momentum: 1

  ==> Pre-Iterations <==

   -------------------------------------------------------
    Irrep   Nso     Nmo     Nalpha   Nbeta   Ndocc  Nsocc
   -------------------------------------------------------
     A          7       7       0       0       0       0
   -------------------------------------------------------
    Total       7       7       3       3       3       0
   -------------------------------------------------------

  ==> Integral Setup <==

  Using in-core PK algorithm.
   Calculation information:
      Number of atoms:                   3
      Number of AO shells:               5
      Number of primitives:             15
      Number of atomic orbitals:         7
      Number of basis functions:         7

      Integral cutoff                 1.00e-12
      Number of threads:                 1

  Performing in-core PK
  Using 812 doubles for integral storage.
  We computed 120 shell quartets total.
  Whereas there are 120 unique shell quartets.

  ==> DiskJK: Disk-Based J/K Matrices <==

    J tasked:                  Yes
    K tasked:                  Yes
    wK tasked:                  No
    Memory [MiB]:             5722
    Schwarz Cutoff:          1E-12

    OpenMP threads:              1

  Minimum eigenvalue in the overlap matrix is 4.1624006603E-01.
  Using Symmetric Orthogonalization.

  SCF Guess: Superposition of Atomic Densities via on-the-fly atomic UHF.

  ==> Iterations <==

                        Total Energy        Delta E     RMS |[F,P]|

   @RHF iter SAD:   -14.51651565551068   -1.45165e+01   0.00000e+00 
   @RHF iter   1:   -15.44198055148189   -9.25465e-01   2.17940e-02 DIIS
   @RHF iter   2:   -15.47058718112698   -2.86066e-02   6.39419e-04 DIIS
   @RHF iter   3:   -15.47060458815400   -1.74070e-05   1.22898e-04 DIIS
   @RHF iter   4:   -15.47060580465524   -1.21650e-06   1.81451e-05 DIIS
   @RHF iter   5:   -15.47060583126004   -2.66048e-08   3.56132e-08 DIIS
  Energy and wave function converged.


  ==> Post-Iterations <==

    Orbital Energies [Eh]
    ---------------------

    Doubly Occupied:                                                      

       1A     -4.541815     2A     -0.396687     3A     -0.350833  

    Virtual:                                                              

       4A      0.212709     5A      0.212709     6A      0.303320  
       7A      0.602964  

    Final Occupation by Irrep:
              A 
    DOCC [     3 ]

  @RHF Final Energy:   -15.47060583126004

   => Energetics <=

    Nuclear Repulsion Energy =              2.6458860533499999
    One-Electron Energy =                 -25.6543147975901711
    Two-Electron Energy =                   7.5378229129801309
    Total Energy =                        -15.4706058312600394

Computation Completed


Properties will be evaluated at   0.000000,   0.000000,   0.000000 [a0]

Properties computed using the SCF density matrix

  Nuclear Dipole Moment: [e a0]
     X:     0.0000      Y:     0.0000      Z:     0.0000

  Electronic Dipole Moment: [e a0]
     X:    -0.0000      Y:     0.0000      Z:    -0.0000

  Dipole Moment: [e a0]
     X:    -0.0000      Y:     0.0000      Z:    -0.0000     Total:     0.0000

  Dipole Moment: [D]
     X:    -0.0000      Y:     0.0000      Z:    -0.0000     Total:     0.0000


*** tstop() called on DN0a2224ae.SUNet at Fri May 31 15:21:45 2019
Module time:
	user time   =       0.20 seconds =       0.00 minutes
	system time =       0.01 seconds =       0.00 minutes
	total time  =          1 seconds =       0.02 minutes
Total time:
	user time   =       1.71 seconds =       0.03 minutes
	system time =       0.14 seconds =       0.00 minutes
	total time  =          2 seconds =       0.03 minutes
 MINTS: Wrapper to libmints.
   by Justin Turney

   Calculation information:
      Number of threads:                 1
      Number of atoms:                   3
      Number of AO shells:               5
      Number of SO shells:               5
      Number of primitives:             15
      Number of atomic orbitals:         7
      Number of basis functions:         7

      Number of irreps:                  1
      Integral cutoff                 0.00e+00
      Number of functions per irrep: [   7 ]

 OEINTS: Overlap, kinetic, potential, dipole, and quadrupole integrals
         stored in file 35.

      Computing two-electron integrals...done
      Computed 167 non-zero two-electron integrals.
        Stored in file 33.


*** tstart() called on DN0a2224ae.SUNet
*** at Fri May 31 15:21:45 2019


	Wfn Parameters:
	--------------------
	Wavefunction         = CCSD
	Number of irreps     = 1
	Number of MOs        = 7
	Number of active MOs = 7
	AO-Basis             = NONE
	Semicanonical        = false
	Reference            = RHF
	Print Level          = 1

	IRREP	# MOs	# FZDC	# DOCC	# SOCC	# VIRT	# FZVR
	-----	-----	------	------	------	------	------
	 A	   7	    0	    3	    0	    4	    0
	Transforming integrals...
	IWL integrals will be deleted.
	(OO|OO)...
	Presorting SO-basis two-electron integrals.
	Sorting File: SO Ints (nn|nn) nbuckets = 1
	Transforming the one-electron integrals and constructing Fock matrices
	Starting first half-transformation.
	Sorting half-transformed integrals.
	First half integral transformation complete.
	Starting second half-transformation.
	Two-electron integral transformation complete.
	(OO|OV)...
	Starting second half-transformation.
	Two-electron integral transformation complete.
	(OO|VV)...
	Starting second half-transformation.
	Two-electron integral transformation complete.
	(OV|OO)...
	Starting first half-transformation.
	Sorting half-transformed integrals.
	First half integral transformation complete.
	Starting second half-transformation.
	Two-electron integral transformation complete.
	(OV|OV)...
	Starting second half-transformation.
	Two-electron integral transformation complete.
	(OV|VV)...
	Starting second half-transformation.
	Two-electron integral transformation complete.
	(VV|OO)...
	Starting first half-transformation.
	Sorting half-transformed integrals.
	First half integral transformation complete.
	Starting second half-transformation.
	Two-electron integral transformation complete.
	(VV|OV)...
	Starting second half-transformation.
	Two-electron integral transformation complete.
	(VV|VV)...
	Starting second half-transformation.
	Two-electron integral transformation complete.
	Frozen core energy     =      0.00000000000000

	Size of irrep 0 of <ab|cd> integrals:      0.000 (MW) /      0.002 (MB)
	Total:                                     0.000 (MW) /      0.002 (MB)

	Size of irrep 0 of <ia|bc> integrals:      0.000 (MW) /      0.002 (MB)
	Total:                                     0.000 (MW) /      0.002 (MB)

	Size of irrep 0 of tijab amplitudes:       0.000 (MW) /      0.001 (MB)
	Total:                                     0.000 (MW) /      0.001 (MB)

	Nuclear Rep. energy          =      2.64588605335000
	SCF energy                   =    -15.47060583126004
	One-electron energy          =    -25.65431486911747
	Two-electron energy          =      7.53782298450736
	Reference energy             =    -15.47060583126011

*** tstop() called on DN0a2224ae.SUNet at Fri May 31 15:21:45 2019
Module time:
	user time   =       0.00 seconds =       0.00 minutes
	system time =       0.05 seconds =       0.00 minutes
	total time  =          0 seconds =       0.00 minutes
Total time:
	user time   =       1.72 seconds =       0.03 minutes
	system time =       0.20 seconds =       0.00 minutes
	total time  =          2 seconds =       0.03 minutes
            **************************
            *                        *
            *        CCENERGY        *
            *                        *
            **************************

    Nuclear Rep. energy (wfn)     =    2.645886053350000
    SCF energy          (wfn)     =  -15.470605831260039
    Reference energy    (file100) =  -15.470605831260112

    Input parameters:
    -----------------
    Wave function   =     CCSD
    Reference wfn   =     RHF
    Brueckner       =     No
    Memory (Mbytes) =     8000.0
    Maxiter         =   1000000
    R_Convergence   =     1.0e-06
    E_Convergence   =     1.0e-06
    Restart         =     Yes
    DIIS            =     Yes
    AO Basis        =     NONE
    ABCD            =     NEW
    Cache Level     =     2
    Cache Type      =     LOW
    Print Level     =     1
    Num. of threads =     1
    # Amps to Print =     1000000
    Print MP2 Amps? =     No
    Analyze T2 Amps =     No
    Print Pair Ener =     No
    Local CC        =     No
    SCS-MP2         =     False
    SCSN-MP2        =     False
    SCS-CCSD        =     False

MP2 correlation energy -0.0352928443484997
                Solving CC Amplitude Equations
                ------------------------------
  Iter             Energy              RMS        T1Diag      D1Diag    New D1Diag    D2Diag
  ----     ---------------------    ---------   ----------  ----------  ----------   --------
     0        -0.035292844348500    0.000e+00    0.000000    0.000000    0.000000    0.112366
     1        -0.048469412914423    5.989e-02    0.002857    0.006968    0.006968    0.158508
     2        -0.057338253655150    2.570e-02    0.005427    0.013125    0.013125    0.192434
     3        -0.057359918011063    3.537e-03    0.006018    0.014343    0.014343    0.193772
     4        -0.057474235917928    1.481e-03    0.006445    0.015257    0.015257    0.194654
     5        -0.057465587407263    4.256e-04    0.006616    0.015647    0.015647    0.194697
     6        -0.057460059019079    5.178e-05    0.006619    0.015660    0.015660    0.194666
     7        -0.057463057376217    1.369e-05    0.006618    0.015657    0.015657    0.194677
     8        -0.057461715438664    3.292e-06    0.006617    0.015654    0.015654    0.194672
     9        -0.057462159997122    1.425e-06    0.006617    0.015655    0.015655    0.194674
    10        -0.057462156150930    5.386e-08    0.006617    0.015655    0.015655    0.194674

    Iterations converged.


    Largest TIA Amplitudes:
              1   2        -0.0156515044
              2   3         0.0041967016
              0   2         0.0003483385

    Largest TIjAb Amplitudes:
      2   2   2   2        -0.1332340834
      1   1   2   2        -0.0902799620
      1   2   2   3        -0.0839434222
      2   1   3   2        -0.0839434222
      1   2   3   2        -0.0703054697
      2   1   2   3        -0.0703054697
      2   2   3   3        -0.0678343887
      1   1   0   0        -0.0545061318
      1   1   1   1        -0.0545061318
      1   1   3   3        -0.0484759601
      2   2   0   0         0.0050912278
      2   2   1   1         0.0050912278
      0   1   0   0         0.0031035445
      0   1   1   1         0.0031035445
      1   0   0   0         0.0031035445
      1   0   1   1         0.0031035445
      0   0   2   2        -0.0020832548
      0   1   3   3         0.0016982803
      1   0   3   3         0.0016982803
      0   0   0   0        -0.0015345259
      0   0   1   1        -0.0015345259
      0   0   3   3        -0.0014239282
      0   1   2   2        -0.0010596361
      1   0   2   2        -0.0010596361
      0   2   2   3        -0.0004522484
      2   0   3   2        -0.0004522484
      0   2   3   2         0.0000415677
      2   0   2   3         0.0000415677

    SCF energy       (wfn)                    =  -15.470605831260039
    Reference energy (file100)                =  -15.470605831260112

    Opposite-spin MP2 correlation energy      =   -0.034884572095038
    Same-spin MP2 correlation energy          =   -0.000408272253462
    MP2 correlation energy                    =   -0.035292844348500
      * MP2 total energy                      =  -15.505898675608613

    Opposite-spin CCSD correlation energy     =   -0.056958415738563
    Same-spin CCSD correlation energy         =   -0.000503740412368
    CCSD correlation energy                   =   -0.057462156150930
      * CCSD total energy                     =  -15.528067987411042


    Psi4 stopped on: Friday, 31 May 2019 03:21PM
    Psi4 wall time for execution: 0:00:03.32

*** Psi4 exiting successfully. Buy a developer a beer!
